LAMMPS data file from restart file: timestep = 0, procs = 1

8470 atoms

2 atom types

-0.50000000000e+00 999.50000000000e+00 xlo xhi
-3.50000000000e+00 3.50000000000e+00 ylo yhi
-20.50000000000e+00 20.50000000000e+00 zlo zhi

Masses

1 1.0
2 1.0

Atoms

1 1 29.871473626840938 -1.3514968820834474 4.731223366150917 0.0 0.0 1.0
2 1 32.27235547986349 -1.4451434517855104 1.4723130060722163 0.0 0.0 1.0
3 1 34.170450805742746 -1.1120323910581051 6.3940271307349095 0.0 0.0 1.0
4 1 28.37351432568617 -2.9528547065163124 0.0334729879087134 0.0 0.0 1.0
5 1 30.433408141003937 -2.3733182782453612 0.6115608419080785 0.0 0.0 1.0
6 1 24.834396315651162 -0.7237755524795562 3.5721013829080643 0.0 0.0 1.0
7 1 32.22067989688155 -2.578946562899291 0.22325728291047794 0.0 0.0 1.0
8 1 25.682704469054077 1.0149426791175937 4.907936165585089 0.0 0.0 1.0
9 1 32.59597605248734 1.1450757427979141 0.5389469205925992 0.0 0.0 1.0
10 1 26.696026369328763 0.3451897810268152 0.6229281647420205 0.0 0.0 1.0
11 1 29.538123353303956 2.996659363986679 0.9226424669008895 0.0 0.0 1.0
12 1 24.51409245778804 0.8067252976217918 3.6003011197529373 0.0 0.0 1.0
13 1 31.381150554225588 -2.3743321366317414 0.52636093858846 0.0 0.0 1.0
14 1 28.794180133697072 -2.241199097329147 0.2566165983279325 0.0 0.0 1.0
15 1 30.733726694559927 2.56120227257576 1.2672963237496817 0.0 0.0 1.0
16 1 29.16532232404461 -2.682528897455777 1.9644027865591753 0.0 0.0 1.0
17 1 37.577864370708724 -2.7250154548289114 0.056283251492802076 0.0 0.0 1.0
18 1 31.045588760826778 0.9219557965248835 0.6045328617166014 0.0 0.0 1.0
19 1 22.75571600725516 -1.7275625026996375 2.7899858273228952 0.0 0.0 1.0
20 1 30.473876685346006 2.7231075756028504 8.098369958481355 0.0 0.0 1.0
21 1 33.629669536743705 1.6050195442402648 4.171209137777375 0.0 0.0 1.0
22 1 29.94862651656667 1.0507116579834852 0.005401443502423422 0.0 0.0 1.0
23 1 26.88885461786449 -1.4142237847819008 0.9176426388198117 0.0 0.0 1.0
24 1 30.87397843021136 2.0148689963351076 2.797934436132327 0.0 0.0 1.0
25 1 39.379062710954926 2.325744971706886 1.0220400795697857 0.0 0.0 1.0
26 1 32.03461721505047 -1.5764171749022393 0.5437414815305633 0.0 0.0 1.0
27 1 23.456072361442278 2.5771452256978478 4.572274438105836 0.0 0.0 1.0
28 1 26.813230572203075 0.16012392507553752 3.3713899174632402 0.0 0.0 1.0
29 1 30.264922402053273 -0.33611084173192474 0.7572713054902878 0.0 0.0 1.0
30 1 25.591120939948333 -0.057337544955742725 3.135638543171998 0.0 0.0 1.0
31 1 33.05187736466159 -1.5631228740205527 0.6359110621529094 0.0 0.0 1.0
32 1 38.18081116599209 1.7739439825421712 5.28381683537849 0.0 0.0 1.0
33 1 26.71491310172381 2.044759428914662 3.4646122043537666 0.0 0.0 1.0
34 1 24.470658186411335 2.0559967010013143 4.387229912477686 0.0 0.0 1.0
35 1 25.36289460448272 -2.5928193745608317 4.453601409819257 0.0 0.0 1.0
36 1 29.99354227467396 2.717028024139978 0.3824342699653188 0.0 0.0 1.0
37 1 33.903672273418884 2.4051900042251138 7.777999916623424 0.0 0.0 1.0
38 1 22.4321623162532 -1.2041739185643887 0.6959031447011705 0.0 0.0 1.0
39 1 23.451380820484367 2.2648592306804964 1.042449826551075 0.0 0.0 1.0
40 1 36.137087872286045 0.2070395947905297 0.9940125515230196 0.0 0.0 1.0
41 1 38.59183633461174 2.80686702171508 0.9987673375607141 0.0 0.0 1.0
42 1 28.35224821268656 0.938546548329684 4.403628277495952 0.0 0.0 1.0
43 1 36.12790364539386 -2.270563282790609 7.796374759822573 0.0 0.0 1.0
44 1 24.69527322597957 -2.300146799628264 4.903631247665291 0.0 0.0 1.0
45 1 25.01595398722704 0.44998464585730513 1.2866921942231528 0.0 0.0 1.0
46 1 21.026823427844626 -1.2427700628198215 2.8528570535678024 0.0 0.0 1.0
47 1 30.648024195586657 1.155645089157832 7.150258090869819 0.0 0.0 1.0
48 1 33.200554191363 2.894317442573687 6.567260091786217 0.0 0.0 1.0
49 1 38.59990080329263 2.518396663477599 1.9977279966899846 0.0 0.0 1.0
50 1 23.316069848631066 0.4596730928620123 0.9961371527931961 0.0 0.0 1.0
51 1 29.98862358713174 -2.8854865247673693 0.12905282007190746 0.0 0.0 1.0
52 1 27.863522864193943 0.5968651341618658 0.7720370342959781 0.0 0.0 1.0
53 1 37.04905821557033 -1.9789637701355354 3.8687908295606124 0.0 0.0 1.0
54 1 31.303102552744615 -2.9475950919201646 0.007051377449556304 0.0 0.0 1.0
55 1 30.62071953818581 1.7339853552339743 0.9057714417667104 0.0 0.0 1.0
56 1 25.088976748108394 -0.8940701337299828 4.788365149401197 0.0 0.0 1.0
57 1 27.595700886061998 -1.4744661519475106 0.6357449062923445 0.0 0.0 1.0
58 1 28.330560340459794 2.1041725693057316 2.7421424083604413 0.0 0.0 1.0
59 1 30.934380684458375 -2.5158512910059256 6.843665042733342 0.0 0.0 1.0
60 1 28.395806861679116 -0.26810126145564306 5.579055511752612 0.0 0.0 1.0
61 1 27.930959133522855 -0.9072518329881092 1.1100317576463785 0.0 0.0 1.0
62 1 29.826219725187244 -0.792685984227496 3.5263606877467586 0.0 0.0 1.0
63 1 30.81263191510436 -2.640823582937588 2.534733693133371 0.0 0.0 1.0
64 1 33.24952935911966 -2.380716566102215 9.138969518876191 0.0 0.0 1.0
65 1 29.115699316446793 1.696221849028288 8.533650767728414 0.0 0.0 1.0
66 1 29.3543776387478 1.0057900160503763 2.8203470841429197 0.0 0.0 1.0
67 1 23.023472101680227 2.95475949991563 2.7279047881149316 0.0 0.0 1.0
68 1 24.572776074018286 2.5216353616752087 0.12527138766112064 0.0 0.0 1.0
69 1 31.784452182982687 2.9504839522882875 4.899698213118315 0.0 0.0 1.0
70 1 28.54239052911624 -2.4585446155618635 1.4008736569224118 0.0 0.0 1.0
71 1 32.5198699929824 2.672041530128012 4.921166888387407 0.0 0.0 1.0
72 1 35.609562487513394 -2.1684386811890697 4.87817210696588 0.0 0.0 1.0
73 1 34.834927193818295 2.6619544559347315 3.392844029925401 0.0 0.0 1.0
74 1 36.47991896007753 0.5436636956284278 3.7118839587692154 0.0 0.0 1.0
75 1 29.720559715436522 -1.6167552892218413 2.29207074902716 0.0 0.0 1.0
76 1 33.812703249787425 -1.64847689222689 3.45458834021792 0.0 0.0 1.0
77 1 32.06420061888044 2.279418924121784 3.96906860604879 0.0 0.0 1.0
78 1 30.201513706995115 -1.7820867345976636 9.001828801768543 0.0 0.0 1.0
79 1 33.02918169692981 -2.448281473336743 1.8484721323179456 0.0 0.0 1.0
80 1 38.869939601209765 1.6247217323569227 2.091479521954147 0.0 0.0 1.0
81 1 25.907800978019722 1.039437021763269 2.7077410615148545 0.0 0.0 1.0
82 1 27.500936041465227 -2.991567232942178 2.1126287077686587 0.0 0.0 1.0
83 1 20.75255307500383 0.2354794459454661 3.2051668828043094 0.0 0.0 1.0
84 1 21.12879201198419 -0.8777539664989309 3.8933611654255964 0.0 0.0 1.0
85 1 35.40317842840422 0.3956048481210299 6.095520197209559 0.0 0.0 1.0
86 1 29.9271028506124 1.6683272944682326 7.164756712396303 0.0 0.0 1.0
87 1 24.62334774313657 -0.837955131364291 0.2817298977141118 0.0 0.0 1.0
88 1 27.897106658114858 1.2652943972596153 1.1797951718435575 0.0 0.0 1.0
89 1 32.073684082590255 -2.7710000885424497 5.874771899813269 0.0 0.0 1.0
90 1 27.500735098773546 1.9325311012514872 2.064274814661588 0.0 0.0 1.0
91 1 33.59098897549283 2.9397352230238685 4.171531785803915 0.0 0.0 1.0
92 1 26.845929362202583 -1.354558200200812 7.160560087157565 0.0 0.0 1.0
93 1 26.72457224941528 1.3535398587638579 8.613821641651636 0.0 0.0 1.0
94 1 31.19694557206691 2.761924499725838 2.4933569024756506 0.0 0.0 1.0
95 1 29.984952118122855 -1.6397817767629912 1.4111593580031172 0.0 0.0 1.0
96 1 36.80743312894568 -1.410923633888863 4.577218982777429 0.0 0.0 1.0
97 1 38.873997815596255 0.5669466129713596 1.761794390456797 0.0 0.0 1.0
98 1 27.74904659270077 0.4650802306756523 6.898190215862376 0.0 0.0 1.0
99 1 28.692581844435527 1.9139369124530416 0.06319573460408769 0.0 0.0 1.0
100 1 22.322079994589068 -1.4771185891251357 2.0792702357605233 0.0 0.0 1.0
101 1 38.75475389528219 -0.24293127911143042 1.5934507714038253 0.0 0.0 1.0
102 1 29.376342949594253 1.0184082771036822 0.5029214933507865 0.0 0.0 1.0
103 1 24.748741879547108 2.5511084752915405 2.517216910894085 0.0 0.0 1.0
104 1 28.060236883372326 -0.4522723239295985 0.03597001476756537 0.0 0.0 1.0
105 1 24.6398520493254 -1.6461758044265205 3.743277154873207 0.0 0.0 1.0
106 1 29.768029007394013 0.49361520529129876 0.88612669779358 0.0 0.0 1.0
107 1 38.17910968098397 -1.4871090937575797 2.1113575365086277 0.0 0.0 1.0
108 1 26.97897483615894 0.5178013799018775 8.764782629187986 0.0 0.0 1.0
109 1 35.12524588379994 -0.05182768375451818 4.71578472452783 0.0 0.0 1.0
110 1 23.55495740779876 -1.1048375499293288 6.945843882754785 0.0 0.0 1.0
111 1 32.81555790703671 -1.9618671082055803 2.658215796202913 0.0 0.0 1.0
112 1 22.14386851678266 2.347326897913308 3.5366515947844395 0.0 0.0 1.0
113 1 31.76527806237756 0.1072462419191007 0.22621152079967283 0.0 0.0 1.0
114 1 36.155683328643335 -1.2141476832152125 3.3177122274001407 0.0 0.0 1.0
115 1 37.58707716027847 2.2234254501806934 1.7878452451915643 0.0 0.0 1.0
116 1 24.927148649429114 -1.3427214095806677 3.057942191687005 0.0 0.0 1.0
117 1 34.206434550704536 -0.4865364634903422 0.49601380048988836 0.0 0.0 1.0
118 1 29.835013585488085 -1.5903986510556818 0.2041123810492312 0.0 0.0 1.0
119 1 35.68246107384997 1.426418259964791 6.6638310105937135 0.0 0.0 1.0
120 1 30.950134991563917 -2.3338250901827617 5.517499493042152 0.0 0.0 1.0
121 1 28.537855125064464 2.501310924236188 4.245872270756792 0.0 0.0 1.0
122 1 22.536970616221904 2.3431473803222005 1.7955841268094175 0.0 0.0 1.0
123 1 25.171688140123663 2.908097178801814 6.37628007588537 0.0 0.0 1.0
124 1 29.485639928655026 -1.9823502172532905 4.577779067748218 0.0 0.0 1.0
125 1 26.49473271114602 2.274132905245991 0.7376045250190035 0.0 0.0 1.0
126 1 32.71042135365921 0.595851418133504 8.855529417045265 0.0 0.0 1.0
127 1 26.7221113376079 -2.3660414544177755 0.7713357607771709 0.0 0.0 1.0
128 1 33.83324678575567 2.048964149265519 2.6016001991051887 0.0 0.0 1.0
129 1 33.63202177800551 -0.4499919212365411 5.3762508363374755 0.0 0.0 1.0
130 1 24.819664680692515 -0.6296139968602477 1.2817816335969539 0.0 0.0 1.0
131 1 22.51372843464471 -0.7563343147879471 2.5486286783039063 0.0 0.0 1.0
132 1 30.26218621636304 -2.6335618938967107 3.4153451204291287 0.0 0.0 1.0
133 1 23.57993847010138 2.8266815789969435 1.9349085442398382 0.0 0.0 1.0
134 1 30.756273995384575 0.29082096312035777 6.156241219618511 0.0 0.0 1.0
135 1 30.26685053662691 0.6351419537155039 7.8668096623424875 0.0 0.0 1.0
136 1 38.0404158966445 0.298345789252771 4.813359244243694 0.0 0.0 1.0
137 1 27.11801849111347 -1.0150571897796568 8.73601456685094 0.0 0.0 1.0
138 1 24.917264276542873 -2.8747197939737172 7.691993122284745 0.0 0.0 1.0
139 1 36.02698508816364 1.645568814654486 2.6291980063422082 0.0 0.0 1.0
140 1 32.42812262700517 0.02518341297208604 0.7763435324658949 0.0 0.0 1.0
141 1 21.44469075045754 -0.5012231198514101 1.4207925963308052 0.0 0.0 1.0
142 1 29.635736871365296 -0.1415035604567514 3.126548532172406 0.0 0.0 1.0
143 1 22.307300567632005 2.507797956457125 4.8491055128824945 0.0 0.0 1.0
144 1 29.850223860901245 -0.82323333525681 7.609128422618072 0.0 0.0 1.0
145 1 21.727296244198545 -0.7523132482025687 0.6725695110261407 0.0 0.0 1.0
146 1 32.95762575979858 2.477905732891495 1.2100417899721079 0.0 0.0 1.0
147 1 24.344667525391092 -1.3646097006268074 1.5014130559834178 0.0 0.0 1.0
148 1 31.374495524964885 1.8940572310662809 9.03099990402262 0.0 0.0 1.0
149 1 28.023213278782393 2.6157843735553445 0.8948369078610914 0.0 0.0 1.0
150 1 32.317275023958075 1.7082443682543538 1.4186029403603853 0.0 0.0 1.0
151 1 36.42321111095032 -1.0510182608226002 5.803174222519534 0.0 0.0 1.0
152 1 34.81512804596784 -2.6673821808284517 7.856374899390013 0.0 0.0 1.0
153 1 32.585636947522104 0.6563518829373574 3.796367713767715 0.0 0.0 1.0
154 1 29.040633595273707 1.190690772770382 1.4600307801435985 0.0 0.0 1.0
155 1 33.65010105730728 2.984227323559452 0.93244953033905 0.0 0.0 1.0
156 1 25.468388429722474 -0.22754050776852885 6.931831895875572 0.0 0.0 1.0
157 1 25.650147113401765 -1.3072393456842353 8.730992681667455 0.0 0.0 1.0
158 1 27.190068908127024 1.635538528318821 8.071467784448657 0.0 0.0 1.0
159 1 30.191354037483357 1.4940612791526426 2.6340622193182575 0.0 0.0 1.0
160 1 26.617563062012383 0.45309534343684366 5.949325494989743 0.0 0.0 1.0
161 1 37.139207430669444 -0.0777645094800663 2.2779206533073992 0.0 0.0 1.0
162 1 27.602735887125178 -2.8238438050907275 1.363988395260682 0.0 0.0 1.0
163 1 34.57188635699093 -0.6264220568288206 2.213531760238068 0.0 0.0 1.0
164 1 29.347388462900895 -1.2093358092073967 2.8818378917500866 0.0 0.0 1.0
165 1 36.868405724907824 2.767030477534691 1.3607750112078563 0.0 0.0 1.0
166 1 31.91271834106216 0.34777501778315134 5.336974238209284 0.0 0.0 1.0
167 1 30.28833803785495 1.218933906567523 8.399195246947992 0.0 0.0 1.0
168 1 28.78894485835451 2.5977204029063596 0.3981569284181517 0.0 0.0 1.0
169 1 25.086040109159022 -2.8245266003571174 3.4543304805929695 0.0 0.0 1.0
170 1 25.91252424453392 -1.9715066112565036 0.08283856314866571 0.0 0.0 1.0
171 1 24.808723819630757 1.3099082864037097 4.487034996538727 0.0 0.0 1.0
172 1 31.906306160166164 1.3718846351269312 2.2460856077948255 0.0 0.0 1.0
173 1 21.549623173683777 2.084268369807276 2.062800574807242 0.0 0.0 1.0
174 1 26.163197274766713 -0.3313132501675007 6.190018030562825 0.0 0.0 1.0
175 1 30.818523825208636 -0.6126240083648873 2.053880903248209 0.0 0.0 1.0
176 1 31.730315792773258 -0.64816909885552 5.53843475078574 0.0 0.0 1.0
177 1 31.895817751877217 -1.783258338350214 6.881831024475542 0.0 0.0 1.0
178 1 33.33858452670496 1.3468983170009636 7.162259569033549 0.0 0.0 1.0
179 1 26.956747595503206 2.554428748918598 5.556533555243688 0.0 0.0 1.0
180 1 23.82183578127276 -1.748445159543504 6.488069798023912 0.0 0.0 1.0
181 1 27.774621774879478 1.0374289211929053 8.484867908612609 0.0 0.0 1.0
182 1 24.399781004213715 2.789117854931451 3.296906991143557 0.0 0.0 1.0
183 1 31.17927918608175 -2.451080492111106 1.3945756100938125 0.0 0.0 1.0
184 1 22.649124194956414 -2.5299202870078483 4.719583714210068 0.0 0.0 1.0
185 1 33.43945300133031 -1.3340411950522664 1.8734571676862106 0.0 0.0 1.0
186 1 32.14759478634011 -2.1906479347803653 4.020646412815621 0.0 0.0 1.0
187 1 34.204050260883015 1.1685439763952594 0.7250671608237407 0.0 0.0 1.0
188 1 27.435782484094524 0.9061882337959117 5.267313580158873 0.0 0.0 1.0
189 1 32.39687565287957 2.2931165427288462 7.270915164956052 0.0 0.0 1.0
190 1 30.55676256489776 2.418414041923322 5.588843388867764 0.0 0.0 1.0
191 1 32.376571100662545 0.9274932243953518 4.85400124278792 0.0 0.0 1.0
192 1 29.253482456561798 0.519425979318477 6.253491975976808 0.0 0.0 1.0
193 1 34.65244541002097 -1.9374562488530245 3.2814874418321884 0.0 0.0 1.0
194 1 25.251137569096223 1.7341531314913503 0.11105108594839688 0.0 0.0 1.0
195 1 33.98747455809939 -2.34335477218443 8.155671894218502 0.0 0.0 1.0
196 1 25.92772075195898 -1.224859849328782 0.274087470610807 0.0 0.0 1.0
197 1 22.076409370894304 -1.8253879747974684 3.2663867663300863 0.0 0.0 1.0
198 1 30.612216776608896 0.4616992468969525 8.53236126545092 0.0 0.0 1.0
199 1 31.72631764867524 -1.350270592557855 4.259148331258233 0.0 0.0 1.0
200 1 33.574107631144585 0.7671137596209054 9.035417325232842 0.0 0.0 1.0
201 1 23.669069069730497 -2.447572186890239 4.909991374462668 0.0 0.0 1.0
202 1 31.281261997687366 1.1888977678468358 1.6645910754659148 0.0 0.0 1.0
203 1 25.227111287654512 -2.99777222947069 2.0250308114686515 0.0 0.0 1.0
204 1 22.462063208862908 1.741509127055119 2.930208822781884 0.0 0.0 1.0
205 1 28.51915595687229 -0.09102054844887375 8.505532451549263 0.0 0.0 1.0
206 1 32.997412516995134 2.0926787148721724 8.92493530522376 0.0 0.0 1.0
207 1 31.34167541745105 2.2677555706204036 1.867371173284186 0.0 0.0 1.0
208 1 31.05557889346442 -0.2147084737193219 5.287629881770735 0.0 0.0 1.0
209 1 28.73336330964442 -0.5118699576989627 1.6084110855194036 0.0 0.0 1.0
210 1 34.50191949283138 -2.636101078303975 2.5319364163272784 0.0 0.0 1.0
211 1 37.94985896300555 -1.7411582983973457 3.313204819179773 0.0 0.0 1.0
212 1 28.09328970310318 0.4271322649014775 3.269585948732193 0.0 0.0 1.0
213 1 33.83035023890708 0.7171389820386347 3.2302329370265452 0.0 0.0 1.0
214 1 26.29806743585695 0.22956724809456697 4.205058308463064 0.0 0.0 1.0
215 1 25.4057666934589 -0.38321821167062087 0.5941671410731779 0.0 0.0 1.0
216 1 25.817530763321333 -0.643433971172028 8.199661550577813 0.0 0.0 1.0
217 1 37.379015208021784 0.8410268029403198 1.8172962758445488 0.0 0.0 1.0
218 1 26.540059616790042 -0.7055570206680759 4.296642611121448 0.0 0.0 1.0
219 1 27.144230293189718 0.47239427377759036 4.572209409545168 0.0 0.0 1.0
220 1 35.210634111614375 -0.4490979118236633 1.760724978562763 0.0 0.0 1.0
221 1 23.445035401248397 -0.7465528243898412 0.9756591740948853 0.0 0.0 1.0
222 1 33.631072643534736 -2.396689251905179 6.887929779481557 0.0 0.0 1.0
223 1 29.522506098475503 1.9496682607160132 2.573523823743674 0.0 0.0 1.0
224 1 31.387055691126022 0.6809387215094382 8.668568680527414 0.0 0.0 1.0
225 1 25.461287553131434 1.7157016258617883 6.387714279494635 0.0 0.0 1.0
226 1 29.30424221507586 -0.22917780183284808 3.9854610678970883 0.0 0.0 1.0
227 1 28.741201195349696 -2.470530723974721 4.24176649432604 0.0 0.0 1.0
228 1 35.39187771067189 1.9072520218143207 5.032268668243649 0.0 0.0 1.0
229 1 31.356366680443784 -2.6121137792972546 3.668231947831522 0.0 0.0 1.0
230 1 30.779576032585496 -1.299187250437689 0.17230791800594933 0.0 0.0 1.0
231 1 26.587903611695577 2.1123737732149745 8.641860485491454 0.0 0.0 1.0
232 1 24.487192664842553 1.2654210367702934 7.943455536002093 0.0 0.0 1.0
233 1 24.508792851267017 1.8203533541034496 1.5113058655728722 0.0 0.0 1.0
234 1 28.79048694641262 1.6614822521597095 7.055467692653477 0.0 0.0 1.0
235 1 31.59612872748953 2.4086681221132453 0.16800760934167858 0.0 0.0 1.0
236 1 29.154491374832094 2.0229849988603483 1.3383997603332742 0.0 0.0 1.0
237 1 24.185548805325432 -2.2382777978887534 7.270592465506021 0.0 0.0 1.0
238 1 31.107200052836692 -1.4504946117104616 1.6999193411860976 0.0 0.0 1.0
239 1 24.129941971139957 -1.3044921457777257 2.667554670540277 0.0 0.0 1.0
240 1 34.46687223752982 -0.7807423859962874 3.792536321067758 0.0 0.0 1.0
241 1 24.13704952360671 2.6085306792948106 0.829209819944121 0.0 0.0 1.0
242 1 23.54866144823379 1.4117868335372057 2.857909782931416 0.0 0.0 1.0
243 1 32.562976097143704 0.8751048920977871 6.221351927036577 0.0 0.0 1.0
244 1 39.137596525185664 -2.2220244827157147 0.37065290094208503 0.0 0.0 1.0
245 1 37.04400806026125 -1.8291176012383659 0.47836221838221343 0.0 0.0 1.0
246 1 35.967068562678364 1.126268802836342 4.995890156728971 0.0 0.0 1.0
247 1 27.967837567097703 -1.22951243471031 7.611376136110028 0.0 0.0 1.0
248 1 27.30776933741978 1.5525753799082818 3.249630679958924 0.0 0.0 1.0
249 1 31.9041555862751 0.009567354731138344 2.0542318568851465 0.0 0.0 1.0
250 1 29.433438550209516 1.605345436006906 5.609111627075938 0.0 0.0 1.0
251 1 34.508251426637244 -0.4101203191909475 1.3910805612474155 0.0 0.0 1.0
252 1 29.48533685324207 -2.247989549753661 1.206071579307609 0.0 0.0 1.0
253 1 32.29163165640024 -1.312984476450253 8.009945143975015 0.0 0.0 1.0
254 1 31.171398046243088 0.037767312593068425 1.2566003541169788 0.0 0.0 1.0
255 1 29.485667619587872 2.2742848155397404 0.004434534693361859 0.0 0.0 1.0
256 1 26.752242135956088 -0.5887219647865649 7.833695114972915 0.0 0.0 1.0
257 1 30.690434432589715 2.719282384599153 0.0025938504921876287 0.0 0.0 1.0
258 1 30.579704756920194 -1.5956640527766208 5.117677090771957 0.0 0.0 1.0
259 1 29.41670716043307 -2.956988821254718 0.9675721798351797 0.0 0.0 1.0
260 1 32.442703671713424 0.7527028644391915 1.965501082475771 0.0 0.0 1.0
261 1 36.67133997321465 -1.7893659557514938 6.808074517096271 0.0 0.0 1.0
262 1 35.68138038279292 -2.884488238430717 2.2703702280506324 0.0 0.0 1.0
263 1 26.733088944618522 -1.4793010957282025 2.016742361511688 0.0 0.0 1.0
264 1 27.80480543329956 -1.2043135338371003 6.219271107945145 0.0 0.0 1.0
265 1 26.122137496123965 -2.475324709071931 7.562572595652241 0.0 0.0 1.0
266 1 26.053620042754698 -0.6240558248937456 2.9276146514182755 0.0 0.0 1.0
267 1 28.367038922504275 1.7051718582169029 4.203515242256568 0.0 0.0 1.0
268 1 24.124894212379488 1.3845896113333929 0.6566735508982559 0.0 0.0 1.0
269 1 30.46936197923192 -0.16280888071458666 0.0065197043384028095 0.0 0.0 1.0
270 1 33.710354689228595 -2.7132538016928565 0.39985513098189635 0.0 0.0 1.0
271 1 29.861532281881217 -0.751069997136852 9.875027695144864 0.0 0.0 1.0
272 1 30.643870244809474 1.667662937708788 1.8493473074006965 0.0 0.0 1.0
273 1 22.73270965420306 -2.179629248906005 0.8946320407881945 0.0 0.0 1.0
274 1 27.009590441437503 -2.1214947633232955 4.209180940852095 0.0 0.0 1.0
275 1 32.04541993796472 -1.3303689331804605 6.2343778279768625 0.0 0.0 1.0
276 1 36.73548812354122 -2.493202756775333 5.905347218383618 0.0 0.0 1.0
277 1 30.475976277016457 -2.5405156787951872 8.898004938540888 0.0 0.0 1.0
278 1 26.538011399503127 2.9777541643214764 8.023560253523714 0.0 0.0 1.0
279 1 24.619337597173192 -0.7296634745464172 6.550018244104512 0.0 0.0 1.0
280 1 37.0079970046529 1.7122587066430572 2.7536671423357406 0.0 0.0 1.0
281 1 29.590834805791477 2.8433151415320737 5.277844678959509 0.0 0.0 1.0
282 1 29.97880651575263 1.5558311311597466 3.5188595724917913 0.0 0.0 1.0
283 1 28.03398125709698 0.3215194930784966 0.06383970274927582 0.0 0.0 1.0
284 1 26.91229170614509 -0.5276221876273661 1.9488583088172593 0.0 0.0 1.0
285 1 34.366755244669605 -1.7795644819568652 2.4436674488292924 0.0 0.0 1.0
286 1 27.840524657146986 -0.39326424336519406 6.772667034030949 0.0 0.0 1.0
287 1 27.154700577511022 -1.790266535139324 5.248460633059533 0.0 0.0 1.0
288 1 35.48706622737587 -2.3149586031112572 5.6142360846168335 0.0 0.0 1.0
289 1 33.36010499187052 -1.7303305428334304 5.471509946170972 0.0 0.0 1.0
290 1 34.629796060610545 0.41758215080528593 1.1753115138717918 0.0 0.0 1.0
291 1 26.225369659037803 -2.1047583753214996 4.58594735563535 0.0 0.0 1.0
292 1 20.657175346970654 -2.4372237261640395 2.048062031187549 0.0 0.0 1.0
293 1 24.085008585502738 -0.8325007562420019 7.863000502208066 0.0 0.0 1.0
294 1 31.174724654467646 2.563795145377725 4.557546586386067 0.0 0.0 1.0
295 1 34.07370142130701 -1.376853542344471 0.7922558844043868 0.0 0.0 1.0
296 1 38.43166714805433 0.35482911499807024 3.9538645133370665 0.0 0.0 1.0
297 1 25.90162056513712 1.0548021157754404 0.3913832629211832 0.0 0.0 1.0
298 1 29.266096739495623 -0.9552682998178041 6.224159947949439 0.0 0.0 1.0
299 1 28.720556576539124 1.6672539275172849 7.847091284652732 0.0 0.0 1.0
300 1 23.858307181729813 -2.1547426349833714 1.5980799287543974 0.0 0.0 1.0
301 1 32.76392026046531 1.5568747083659824 2.505145497669941 0.0 0.0 1.0
302 1 28.960296081259678 -1.5229510795756473 1.2688383175718285 0.0 0.0 1.0
303 1 24.6045814909357 1.140027083748664 6.689793249639038 0.0 0.0 1.0
304 1 23.510901788873166 -0.38805902091748834 2.6817821384499108 0.0 0.0 1.0
305 1 32.12209695442744 -1.9810194912901828 3.141771974127584 0.0 0.0 1.0
306 1 25.476384054790298 -2.145086761334558 2.7199369940207823 0.0 0.0 1.0
307 1 29.89238608861229 1.787312908505621 1.2992563803309538 0.0 0.0 1.0
308 1 38.64688210496143 2.784945418787534 4.5509464931283565 0.0 0.0 1.0
309 1 26.075456768810803 2.019065411742452 6.015122968518495 0.0 0.0 1.0
310 1 26.771453318979543 1.1126279115163014 1.5426920613706059 0.0 0.0 1.0
311 1 31.89047451381527 -1.1563369093781277 8.862129266909662 0.0 0.0 1.0
312 1 28.057022036994162 2.8088077311547064 9.066764781896108 0.0 0.0 1.0
313 1 37.7395308284227 1.1281458740700927 3.2307521418602883 0.0 0.0 1.0
314 1 36.104344962614604 -0.179320085924898 4.7920413975764875 0.0 0.0 1.0
315 1 24.975390203285983 -1.9790734224432924 8.521298709898124 0.0 0.0 1.0
316 1 27.41697280983874 1.5445490797499062 0.21646110526414294 0.0 0.0 1.0
317 1 26.11824834991247 0.22119914068629942 0.14569699224214758 0.0 0.0 1.0
318 1 28.956508163622686 2.5779725356282395 1.9407280758787282 0.0 0.0 1.0
319 1 26.227145486928954 -2.725132240738507 3.283757163188258 0.0 0.0 1.0
320 1 29.08888374416614 1.230056830142984 4.611337985937894 0.0 0.0 1.0
321 1 34.30601283392971 1.8547446756577113 6.152401065303989 0.0 0.0 1.0
322 1 20.726889305931227 2.5601841599793644 3.645708199008088 0.0 0.0 1.0
323 1 32.09320891406344 0.2555996790492161 7.170012700360999 0.0 0.0 1.0
324 1 20.586946079660656 -0.006891501646060227 1.1913127867729774 0.0 0.0 1.0
325 1 36.232537536034506 -2.1993545421124874 0.517881892270063 0.0 0.0 1.0
326 1 26.85710524485968 1.4078733638473038 6.456058922874145 0.0 0.0 1.0
327 1 32.183246610785645 -0.41113154028742294 6.588316602003408 0.0 0.0 1.0
328 1 25.379139336678257 1.6941578650444509 5.550226150641811 0.0 0.0 1.0
329 1 28.58344863755171 -2.5216350288978058 9.793548615107166 0.0 0.0 1.0
330 1 29.06056781170028 0.9254435877290281 5.458188301485978 0.0 0.0 1.0
331 1 35.682618749714365 1.4956336152564154 3.9012316065788206 0.0 0.0 1.0
332 1 35.31009686089113 -0.6707405230281216 4.129024129201171 0.0 0.0 1.0
333 1 31.83174769160403 1.1188664937352533 0.2815912140317834 0.0 0.0 1.0
334 1 37.03436567908734 0.44214934061081923 5.8347253434284845 0.0 0.0 1.0
335 1 24.61776183706459 1.2480959410043386 2.416982486082674 0.0 0.0 1.0
336 1 22.423520270060543 -2.674062169170838 3.127970670128768 0.0 0.0 1.0
337 1 28.0664845922218 -0.16721565333579846 0.7715536379882854 0.0 0.0 1.0
338 1 33.73826130425614 0.6606188009955964 1.0879877527176254 0.0 0.0 1.0
339 1 21.421591903636063 -2.4409812719934116 3.4091455590588735 0.0 0.0 1.0
340 1 29.43001813980287 -1.3014641588351878 7.197763285862748 0.0 0.0 1.0
341 1 22.32826182186843 2.9183864139932973 1.3103314954394498 0.0 0.0 1.0
342 1 28.73872044110282 2.579854294292314 5.158507963867661 0.0 0.0 1.0
343 1 36.221522665252536 1.9939363083895474 4.095491523148052 0.0 0.0 1.0
344 1 37.65293503365262 2.661046016174293 0.8225687506298677 0.0 0.0 1.0
345 1 35.22193391598062 -2.1300496956654182 1.0533908862127535 0.0 0.0 1.0
346 1 31.285206133230098 1.6756983768684544 6.028184499450434 0.0 0.0 1.0
347 1 37.28180169462812 1.0488185721325998 5.449883179500792 0.0 0.0 1.0
348 1 30.111025282199044 0.5751094796559695 2.0140486500835633 0.0 0.0 1.0
349 1 29.322213010320553 2.1251942642024417 6.765231332160057 0.0 0.0 1.0
350 1 34.479630492535634 1.8875933680439498 1.2883266057903133 0.0 0.0 1.0
351 1 34.484670261207064 -1.9358409385048108 4.710844510477645 0.0 0.0 1.0
352 1 36.23074984278085 2.149257707619026 5.5651761202049865 0.0 0.0 1.0
353 1 36.33179453464203 -0.013331865153120681 0.06381047786074578 0.0 0.0 1.0
354 1 38.33021175259336 2.593412690750018 3.552480474184588 0.0 0.0 1.0
355 1 26.876760526768326 2.8049249700440075 1.1917428590700814 0.0 0.0 1.0
356 1 37.07132006161048 2.472192307614238 3.0842427257740597 0.0 0.0 1.0
357 1 30.698422119941604 -1.978880605027739 7.605714571638736 0.0 0.0 1.0
358 1 34.583703113272264 -0.41529391333817944 5.148238902183584 0.0 0.0 1.0
359 1 22.843553965765437 -0.7087061258984741 4.495265484566568 0.0 0.0 1.0
360 1 25.810791224476088 -2.1169500688120744 1.1890561962485622 0.0 0.0 1.0
361 1 29.13210416422538 1.5332687875909485 9.372569308347105 0.0 0.0 1.0
362 1 35.04150012217613 -1.8288027721618592 2.068152317570601 0.0 0.0 1.0
363 1 34.44318820277556 -1.560060787874714 8.819723631047049 0.0 0.0 1.0
364 1 29.27425259060113 2.3354340324626754 3.8862775431826098 0.0 0.0 1.0
365 1 31.437193955264384 0.977692455790133 3.898546144981792 0.0 0.0 1.0
366 1 28.312722974977845 -1.7271728098811712 1.6622991695573082 0.0 0.0 1.0
367 1 30.502212146089413 1.80041174816329 0.03848314714424101 0.0 0.0 1.0
368 1 29.525832306375698 -0.421370399634978 0.34611201424380156 0.0 0.0 1.0
369 1 34.572529429929425 0.6170995002635875 5.960971440911992 0.0 0.0 1.0
370 1 35.79462532884446 0.9363874794532747 2.2145533661353363 0.0 0.0 1.0
371 1 29.27816998955129 -1.839853885309058 3.3164594739631448 0.0 0.0 1.0
372 1 31.872909906299235 -0.36143565963419544 3.9626512765886543 0.0 0.0 1.0
373 1 32.55291326082366 -0.7618555788328738 2.010807316703879 0.0 0.0 1.0
374 1 22.071326167467426 -1.3570630294992196 4.585209455796253 0.0 0.0 1.0
375 1 29.25664234391246 -2.2183062161367015 7.378956992013445 0.0 0.0 1.0
376 1 26.31144600902924 -2.246378876466112 6.078789771387257 0.0 0.0 1.0
377 1 29.717709801975772 2.48936129289128 7.485843361093385 0.0 0.0 1.0
378 1 26.089257330277924 1.8514626409128585 7.512601860029768 0.0 0.0 1.0
379 1 31.91509990618064 1.9784290787830248 3.1741002011250306 0.0 0.0 1.0
380 1 31.671685438820944 -0.6194086336070677 0.8369182326920707 0.0 0.0 1.0
381 1 37.86667798197678 0.29386732170311314 2.827450986759613 0.0 0.0 1.0
382 1 23.344730903761267 -2.892350526023473 7.459082231935284 0.0 0.0 1.0
383 1 25.669956404235965 -1.3863556256486078 2.4161219158724196 0.0 0.0 1.0
384 1 37.10105937342169 -2.672172265774685 0.8575393686599349 0.0 0.0 1.0
385 1 37.52789343411806 1.102193612341818 4.742834891796241 0.0 0.0 1.0
386 1 32.1167997327021 1.2802434696156295 9.484956988930005 0.0 0.0 1.0
387 1 33.39832420464451 1.7540746879287754 1.8061407432127075 0.0 0.0 1.0
388 1 23.100698136555323 2.1886304255910414 7.010502688735579 0.0 0.0 1.0
389 1 21.61528122629549 1.6070259329292051 2.960399737597608 0.0 0.0 1.0
390 1 33.09945226855306 -2.5616959837301874 8.04200594709569 0.0 0.0 1.0
391 1 24.6953164840062 2.7549853185983677 8.135714607959935 0.0 0.0 1.0
392 1 21.700054950923153 0.360127834659556 2.1859834765068737 0.0 0.0 1.0
393 1 32.97958501056593 -0.7877578638773475 6.289185844120455 0.0 0.0 1.0
394 1 26.595126257656833 -1.6504726689321871 3.664637936207065 0.0 0.0 1.0
395 1 39.4878406650224 -0.47450501208718165 1.682605765670071 0.0 0.0 1.0
396 1 26.318514024613194 0.7145264063318844 7.493761477779794 0.0 0.0 1.0
397 1 25.16125373792106 -0.5022986263760032 8.591448648246507 0.0 0.0 1.0
398 1 25.687378626967217 -1.3826527392990555 5.290626170816571 0.0 0.0 1.0
399 1 22.851435504000488 -0.6773604093423113 0.30741370145307634 0.0 0.0 1.0
400 1 27.47490041660207 2.5814529512027313 3.367380388962449 0.0 0.0 1.0
401 1 26.35387040296505 0.19166544710225253 1.9725776862678601 0.0 0.0 1.0