LAMMPS data file from restart file: timestep = 0, procs = 1

4600 atoms

2 atom types

-30.50000000000e+00 29.50000000000e+00 xlo xhi
-30.50000000000e+00 29.50000000000e+00 ylo yhi
-10.00000000000e+01 10.00000000000e+01 zlo zhi

Masses

1 1.0
2 1.0

Atoms

1 1 3.5999310632784165 -1.6327830689674006 3.7505503050483924 0.0 0.0 1.0
2 1 -0.4065338218751246 -0.2523461148212551 0.374266330843711 0.0 0.0 1.0
3 1 -3.3366229823058635 -0.9484664454147919 4.287898950507716 0.0 0.0 1.0
4 1 -0.05912519837557354 0.03566015127538268 4.20440873434658 0.0 0.0 1.0
5 1 1.171638824179639 -0.008850131716609849 0.5600044114409038 0.0 0.0 1.0
6 1 1.9913747457606625 -2.0386899050409686 0.7340157787522597 0.0 0.0 1.0
7 1 1.223962473974537 1.7560381908706255 3.000541700327331 0.0 0.0 1.0
8 1 0.36434935575493493 1.0337532844590736 2.0586416792087556 0.0 0.0 1.0
9 1 -1.3081594611646694 -1.3923656799191655 6.23084354001026 0.0 0.0 1.0
10 1 2.689754707971423 0.6963668914539487 0.2332086398781396 0.0 0.0 1.0
11 1 -0.6019404557644166 -0.3289215997219917 1.5561947972589756 0.0 0.0 1.0
12 1 0.18057971564516423 -0.19440963829824406 1.5890797531258392 0.0 0.0 1.0
13 1 -0.16202074540649822 2.5666483929304498 2.20756223393233 0.0 0.0 1.0
14 1 -0.734784018380094 -1.3934510062928718 4.643424377663048 0.0 0.0 1.0
15 1 0.7071551716100039 -1.2923523640430066 3.5276277370280256 0.0 0.0 1.0
16 1 -3.163557942460794 3.5944781479130308 3.0764335216699 0.0 0.0 1.0
17 1 -0.2634761667339151 1.2936178851463291 1.4270276649327225 0.0 0.0 1.0
18 1 0.1820106916663015 2.241257182926145 5.6925235618471275 0.0 0.0 1.0
19 1 2.2006212079921683 -0.12923845245089044 0.13167090308624796 0.0 0.0 1.0
20 1 -3.221339970394167 1.0285252443842623 1.6064111768523062 0.0 0.0 1.0
21 1 -0.005296270187295598 -0.022684122515594592 6.592109770209506 0.0 0.0 1.0
22 1 -2.82354597882945 3.072022092252635 1.3531456553255792 0.0 0.0 1.0
23 1 -2.0831460403921116 -4.403264314796955 1.0578185458461877 0.0 0.0 1.0
24 1 -3.42659473661509 -0.05504754044458776 1.4628751580750545 0.0 0.0 1.0
25 1 2.8999793724192764 -2.9086569059693175 1.649398003337519 0.0 0.0 1.0
26 1 5.119444816843655 0.9426687751804786 4.036566897492169 0.0 0.0 1.0
27 1 0.7660102672794106 0.4542359951756622 0.010747944395373693 0.0 0.0 1.0
28 1 -1.1432336598098307 2.1970302956424015 3.780124695724411 0.0 0.0 1.0
29 1 0.1490026355703277 1.6844752017515896 0.8812396129042886 0.0 0.0 1.0
30 1 1.554724588474733 2.5228927620576056 5.507634034339829 0.0 0.0 1.0
31 1 -2.260285299901345 -3.7665956297092933 1.9029065400752272 0.0 0.0 1.0
32 1 1.409080719575695 -1.484851538064664 0.6249907421360027 0.0 0.0 1.0
33 1 -0.8493841914234322 -0.7386095016206853 2.8807654119907875 0.0 0.0 1.0
34 1 -1.5578724010126477 1.2226027341587136 3.6559515249201606 0.0 0.0 1.0
35 1 1.9606322651340187 2.04575000435197 1.0540586263931913 0.0 0.0 1.0
36 1 -2.954934336609446 0.22255962557911793 0.38369873107188057 0.0 0.0 1.0
37 1 -2.8934824568695006 1.4943603321777856 4.04619378361365 0.0 0.0 1.0
38 1 2.2955730709132647 -2.424552891966685 1.6019541197624674 0.0 0.0 1.0
39 1 -6.496924184250792 -0.4685451700969592 1.3926606124054992 0.0 0.0 1.0
40 1 -4.632009333066951 -1.8875551437579368 4.443273036010713 0.0 0.0 1.0
41 1 -1.8743716675346551 2.9503014429296917 0.7573237425413308 0.0 0.0 1.0
42 1 -3.6056475759723026 -2.9241611676954227 2.5351380951533815 0.0 0.0 1.0
43 1 -1.2265203925327577 -1.5420150971642523 3.1047943497344526 0.0 0.0 1.0
44 1 -1.6875527685489042 -2.011064042792834 0.49222434214591715 0.0 0.0 1.0
45 1 1.8713806522428964 1.084241339699866 4.532878216756309 0.0 0.0 1.0
46 1 -2.5085559577658785 -0.8537672031978317 1.2580353001093147 0.0 0.0 1.0
47 1 -5.634149953517506 0.0004711265301512698 1.8577357847698381 0.0 0.0 1.0
48 1 -2.0079833790109998 2.0427384578844032 0.7776316202016077 0.0 0.0 1.0
49 1 4.67504887147454 -0.2740972184815777 1.0195502395103204 0.0 0.0 1.0
50 1 1.636891906377418 -1.2085049077204777 2.526281358496907 0.0 0.0 1.0
51 1 -1.2658024066393367 -2.2016354284874344 1.1892007424250945 0.0 0.0 1.0
52 1 -0.31836309914931543 0.1543091566926033 2.1412011538074114 0.0 0.0 1.0
53 1 0.44951751054050737 -0.12516267946228904 0.8860752343450351 0.0 0.0 1.0
54 1 0.9349341998982654 -2.460909345932705 1.7517482626236163 0.0 0.0 1.0
55 1 6.341242321319508 -0.7416606310587657 0.06654111760571865 0.0 0.0 1.0
56 1 1.2994481977944017 -0.22238180233648605 2.0732142945079506 0.0 0.0 1.0
57 1 -2.6131974987295576 3.6633045761012943 3.923034825203518 0.0 0.0 1.0
58 1 1.3415223704878099 2.452277215421826 3.611333380222007 0.0 0.0 1.0
59 1 0.11859058675897183 1.201013313605759 5.222550746303341 0.0 0.0 1.0
60 1 1.5301938910196937 -0.08398279046361061 4.18920794300006 0.0 0.0 1.0
61 1 -0.34154569990705974 0.9220239334413016 0.4104077639876435 0.0 0.0 1.0
62 1 0.5709716091204351 0.010568476944092912 4.843893200616896 0.0 0.0 1.0
63 1 -1.2675231696257496 -0.32540962398775874 1.0570473622052519 0.0 0.0 1.0
64 1 2.7148962548483313 -0.20243687982589434 1.478725784687037 0.0 0.0 1.0
65 1 3.203335698950212 3.3656017530915543 3.801913362624405 0.0 0.0 1.0
66 1 -0.06977048281534268 -1.1111239505512458 1.3581742553063139 0.0 0.0 1.0
67 1 2.0621229375209733 4.850195310876468 0.801761758292889 0.0 0.0 1.0
68 1 0.027028208318038524 -1.790837398348861 0.8744159102776675 0.0 0.0 1.0
69 1 0.4792881665828411 2.0420117748269524 0.08451631709788789 0.0 0.0 1.0
70 1 -3.35756975604425 -1.9008013003127116 1.5530347951415728 0.0 0.0 1.0
71 1 -1.6315861990466667 -0.008629725515830236 2.515253861573482 0.0 0.0 1.0
72 1 2.140127556437139 1.6243027391544254 3.393410995827674 0.0 0.0 1.0
73 1 -1.0911718762307872 -5.176636479035292 0.7176973866120872 0.0 0.0 1.0
74 1 1.8624785946605433 1.421988827050893 2.462594540055543 0.0 0.0 1.0
75 1 3.275456657321665 0.6460950025875659 1.621112637685732 0.0 0.0 1.0
76 1 -0.6571051103770477 -0.154022581493294 4.774379726744208 0.0 0.0 1.0
77 1 -0.9846163434101496 -2.6806727751668613 2.1268686451271246 0.0 0.0 1.0
78 1 1.8152918629374433 0.4412804086796006 1.6687655657926301 0.0 0.0 1.0
79 1 0.5074874735355693 -0.3170180717035209 0.04555403512577648 0.0 0.0 1.0
80 1 0.8559056916787197 0.769287903519188 0.7326832081593804 0.0 0.0 1.0
81 1 -1.9982628610892665 -0.4188372128690646 0.8279335211127945 0.0 0.0 1.0
82 1 4.644186181177218 0.00894555064687609 1.8047191348748486 0.0 0.0 1.0
83 1 0.05002682316364329 -3.6581513423442145 5.14121806887631 0.0 0.0 1.0
84 1 4.123530796225726 -1.5017531709099197 2.5831237581098567 0.0 0.0 1.0
85 1 5.245972927509959 0.4899444512447266 1.677723623164422 0.0 0.0 1.0
86 1 2.567855912031399 -0.28627839149916845 5.732135800831517 0.0 0.0 1.0
87 1 1.5058037885544893 0.8088466767600638 3.4560477678124566 0.0 0.0 1.0
88 1 -4.136018118955857 1.3519528041841329 5.149511686855423 0.0 0.0 1.0
89 1 4.997943081394407 -1.8113945740152866 1.198820497796354 0.0 0.0 1.0
90 1 -4.16006513224752 -2.0904364185158784 1.8064803077233356 0.0 0.0 1.0
91 1 -4.711601866294736 0.2837702513422054 1.2430441554921494 0.0 0.0 1.0
92 1 1.4684058619671383 -2.0226595718134557 4.578629496130706 0.0 0.0 1.0
93 1 -2.7187003168959327 -4.766227418198236 0.4120537615376469 0.0 0.0 1.0
94 1 -0.6108936663446985 -4.978417958702303 0.1082263368501659 0.0 0.0 1.0
95 1 2.63814350603811 -2.1589906904374025 2.673732512352361 0.0 0.0 1.0
96 1 0.4974505891056281 -4.269420577656877 0.35459399120953083 0.0 0.0 1.0
97 1 -1.655920756654203 -0.8265489901309766 3.822333460713667 0.0 0.0 1.0
98 1 -0.3868802166794341 -1.536952396882432 2.1420430402959814 0.0 0.0 1.0
99 1 4.298881014016034 4.55271904665701 1.842263960985757 0.0 0.0 1.0
100 1 4.972120351883908 3.6015852636159513 2.145723674336656 0.0 0.0 1.0
101 1 0.3451651908749687 5.764377692181906 2.6591625557249157 0.0 0.0 1.0
102 1 1.4238791812610823 -1.754175512622164 1.6529420993126132 0.0 0.0 1.0
103 1 2.8937932851365167 0.5401729609399283 5.8885991844808405 0.0 0.0 1.0
104 1 -2.483962349919267 -1.9921328521137898 4.803790673466005 0.0 0.0 1.0
105 1 -1.0016009620073865 1.260795070420505 3.094008319319721 0.0 0.0 1.0
106 1 -0.34759843349653907 2.8075067640171323 3.287109810019332 0.0 0.0 1.0
107 1 3.3871838514075816 2.1055782087742156 2.9114227200727774 0.0 0.0 1.0
108 1 1.0712887118301408 -1.572024747939031 5.8853012844913835 0.0 0.0 1.0
109 1 -1.3097541763990046 1.9029412757538755 1.4940554527303402 0.0 0.0 1.0
110 1 -1.7048740728570875 1.1524121801077065 0.7511080838704947 0.0 0.0 1.0
111 1 -1.7653043900207366 -5.023362453351271 1.3441823363635719 0.0 0.0 1.0
112 1 1.720816708176577 -4.711930151844501 1.7959344954299519 0.0 0.0 1.0
113 1 -1.1019132655293513 1.1745660451741815 1.7143036175553434 0.0 0.0 1.0
114 1 1.3902628283332652 1.947898365923596 4.442058699934012 0.0 0.0 1.0
115 1 3.7548441508268717 -0.08256870261345256 1.510540518275947 0.0 0.0 1.0
116 1 4.061112416451429 -3.014998835718135 3.068010126266801 0.0 0.0 1.0
117 1 1.9172606757405464 5.011843379032401 1.949197993186095 0.0 0.0 1.0
118 1 0.6020045752598243 1.7488810567126332 1.6066914771494343 0.0 0.0 1.0
119 1 0.657050705404601 3.1381666149803955 3.9204876711798655 0.0 0.0 1.0
120 1 5.97125493153993 -1.9340124946668997 0.5909169740684025 0.0 0.0 1.0
121 1 2.4349034410206585 1.5288329042480577 1.5214450490123201 0.0 0.0 1.0
122 1 -1.4016022569016722 -3.6268596187976563 3.090420987939104 0.0 0.0 1.0
123 1 -3.1371530061649415 -3.041520151410574 0.8693632159049376 0.0 0.0 1.0
124 1 -0.5112575871681296 1.1317374354375758 6.331594049748505 0.0 0.0 1.0
125 1 -0.6086663702939521 -5.054910019095174 3.1008004936485967 0.0 0.0 1.0
126 1 3.6235102150536407 3.8211489512733605 1.362419842020305 0.0 0.0 1.0
127 1 2.815845983629587 -0.5947204008221372 2.190841371276418 0.0 0.0 1.0
128 1 -2.862917694691244 2.9402895418297534 4.004322733345852 0.0 0.0 1.0
129 1 -0.49917549709294007 3.009848403310105 5.541381497939635 0.0 0.0 1.0
130 1 -1.913371452610602 1.0162578158033764 5.996769107645645 0.0 0.0 1.0
131 1 0.0018642272618159686 3.3067695293044235 0.026954242633493698 0.0 0.0 1.0
132 1 1.125659075358103 -0.5287873652167908 6.461370009457795 0.0 0.0 1.0
133 1 2.5423267348257457 0.3998676163027295 3.2943087383411656 0.0 0.0 1.0
134 1 -0.7732578072246429 -0.25315132006919056 6.4017219703243295 0.0 0.0 1.0
135 1 -1.9346882539784718 -4.70001123852573 0.08623870789726208 0.0 0.0 1.0
136 1 -2.4698484160247696 1.376672257673069 5.17185956844176 0.0 0.0 1.0
137 1 0.06552831842394101 -1.3360809640229387 0.04667487577774432 0.0 0.0 1.0
138 1 0.5686946067674551 -0.25143659032416993 3.6683439642096998 0.0 0.0 1.0
139 1 -5.757236435814009 -2.1149875946500587 0.981510926933007 0.0 0.0 1.0
140 1 -2.7448368158049745 -5.225438967407239 1.9047991294956916 0.0 0.0 1.0
141 1 -3.2087081404009155 0.7706927731672443 4.642783607733954 0.0 0.0 1.0
142 1 1.6637937642345468 0.4984136972530034 5.395593112997941 0.0 0.0 1.0
143 1 1.2510215642479356 3.353617918996897 1.0902202002275478 0.0 0.0 1.0
144 1 -0.6278919544101931 1.7959897605945028 5.81813837449334 0.0 0.0 1.0
145 1 0.005148563865685802 -0.3818397518398594 5.277084495226915 0.0 0.0 1.0
146 1 0.8937554318171823 1.3430303682846603 4.67791437965905 0.0 0.0 1.0
147 1 -2.980760621066007 -1.776695473557484 4.187358688930673 0.0 0.0 1.0
148 1 -3.171395828449737 -1.505216790564982 0.44880596346234314 0.0 0.0 1.0
149 1 -0.5513632948794026 -5.837267076422371 3.06573732036712 0.0 0.0 1.0
150 1 -2.2436392196214765 -0.6659970245580085 3.335887286382554 0.0 0.0 1.0
151 1 -3.7363812546119846 -0.9404864314518694 1.8816332500036732 0.0 0.0 1.0
152 1 -1.5092011409341919 3.0027267202774435 4.909675028467584 0.0 0.0 1.0
153 1 1.6869694241625015 4.0494894206970855 1.6681213886399198 0.0 0.0 1.0
154 1 0.9048193229369712 -4.412838385580151 1.4336249840449333 0.0 0.0 1.0
155 1 -3.5041407232499666 0.6832140515985347 0.663641297297246 0.0 0.0 1.0
156 1 -3.6179262194620025 0.9840352657548463 3.687766762623255 0.0 0.0 1.0
157 1 -3.808307341499918 -0.067870182421905 3.3509470158556267 0.0 0.0 1.0
158 1 -2.325501574892258 0.3065793982681683 0.8612658380124832 0.0 0.0 1.0
159 1 3.726092549434553 0.5762691211659607 2.8742347807038047 0.0 0.0 1.0
160 1 5.282526427769615 -3.8881486104854264 0.8570096419000195 0.0 0.0 1.0
161 1 0.19599483033598591 -0.714874069160926 3.059620551375799 0.0 0.0 1.0
162 1 -1.924477785186224 -1.6355583698554672 3.867845575278129 0.0 0.0 1.0
163 1 1.02165377493337 0.8705020394817504 2.500541293359678 0.0 0.0 1.0
164 1 -5.357834568663675 2.0513502229524536 0.8727502274426381 0.0 0.0 1.0
165 1 1.4728501315882883 4.302261636219394 4.168809273982801 0.0 0.0 1.0
166 1 -0.47440661819208435 4.0989468750366465 0.30826776261926275 0.0 0.0 1.0
167 1 -0.06590582804857535 -0.9821718387590064 4.561613889074157 0.0 0.0 1.0
168 1 -1.0764852245032424 -1.015480195252319 1.4921651621178695 0.0 0.0 1.0
169 1 -0.21517349854311207 5.831959633387001 1.8818724187264368 0.0 0.0 1.0
170 1 -0.4879698712982549 -3.7922698264820194 2.312642968507013 0.0 0.0 1.0
171 1 2.393043906568446 -4.878060545342341 3.7350229548579135 0.0 0.0 1.0
172 1 0.4034146615166287 -0.0007533428776618031 2.454869369726018 0.0 0.0 1.0
173 1 -4.018076127532051 2.9343320412181555 1.3203065352720107 0.0 0.0 1.0
174 1 -1.4790105315182858 4.219866345674545 1.1297504280043662 0.0 0.0 1.0
175 1 2.889099035118556 3.578606576813011 2.848651038825139 0.0 0.0 1.0
176 1 0.8229834691930226 1.1155722344904622 5.489581998660292 0.0 0.0 1.0
177 1 1.5693198095854526 5.131028252906381 4.062260081563949 0.0 0.0 1.0
178 1 0.3427584250511961 -3.155659494995129 1.9558034367134618 0.0 0.0 1.0
179 1 -1.5305015681040408 1.8063163215804616 4.940810856791513 0.0 0.0 1.0
180 1 0.9503279709887517 -5.103312782135772 1.0961483451988465 0.0 0.0 1.0
181 1 -1.1429720383664232 0.3605259517720391 3.3892892944967135 0.0 0.0 1.0
182 1 0.08031244800713724 1.096343653525578 2.7551097312333113 0.0 0.0 1.0
183 1 -1.3289514278403598 0.08658786340859183 0.02799284450359506 0.0 0.0 1.0
184 1 2.8824231551091164 4.993246068434323 1.748567521421514 0.0 0.0 1.0
185 1 -0.2761197694584594 -6.132155542062341 1.1003681674946035 0.0 0.0 1.0
186 1 -1.7952148057780906 -0.524626849152777 5.691607137482053 0.0 0.0 1.0
187 1 -3.067129681848062 2.213997919033363 1.0344219006678812 0.0 0.0 1.0
188 1 0.5032058673174646 -4.67837091391176 3.930536893553395 0.0 0.0 1.0
189 1 -0.01409495870229212 1.9533758909269214 2.6930080618311822 0.0 0.0 1.0
190 1 5.428405960185472 2.8430353412116207 0.4236814706982025 0.0 0.0 1.0
191 1 1.4626395565567172 1.7291417251718064 0.3189757989973512 0.0 0.0 1.0
192 1 2.4571193078303484 -1.3418637224344383 0.4574223063475601 0.0 0.0 1.0
193 1 3.9360371333481448 -2.929928252239472 4.045520224465877 0.0 0.0 1.0
194 1 -2.317613958588004 0.005610066608363354 5.063410245066272 0.0 0.0 1.0
195 1 -0.49820182506071425 3.9405662388942493 1.6409128375239517 0.0 0.0 1.0
196 1 2.9683399919472695 3.8816773623262937 0.7992267287328989 0.0 0.0 1.0
197 1 -1.8551165293548644 4.131082472947444 2.48159741758082 0.0 0.0 1.0
198 1 0.7110073583702029 5.330753797788181 2.069509169574382 0.0 0.0 1.0
199 1 -1.643129808593958 -1.088653426454177 0.010464204353271042 0.0 0.0 1.0
200 1 4.399233572386472 3.288620522435571 1.0994336840029 0.0 0.0 1.0
201 1 -3.8522657468996933 5.361029664970445 0.9693696181962655 0.0 0.0 1.0
202 1 3.222049272804661 2.6232578844276087 1.3250266995418851 0.0 0.0 1.0
203 1 -4.5713156331311104 4.712453977864765 0.19541929535162889 0.0 0.0 1.0
204 1 -5.612973868681381 -3.188329422019547 1.7090661492497004 0.0 0.0 1.0
205 1 1.9145847070313877 -0.018377527765746433 2.797477379101941 0.0 0.0 1.0
206 1 4.610770610314584 -3.353588621645974 0.9118512840069635 0.0 0.0 1.0
207 1 0.4212617124757207 -1.452747680110577 2.680340081254074 0.0 0.0 1.0
208 1 -5.6889020293833195 1.0122582942650025 2.991102566085981 0.0 0.0 1.0
209 1 3.16000878597929 -5.337100472064086 0.01927491403426088 0.0 0.0 1.0
210 1 -4.678213663535078 2.553168322997497 1.8167870119473517 0.0 0.0 1.0
211 1 -0.42770713328109944 0.08896718577326133 3.313376982178324 0.0 0.0 1.0
212 1 -1.888797788393527 -3.555918083788513 1.1295191059419916 0.0 0.0 1.0
213 1 2.9461529181869133 -4.899170547220955 0.6523055139309247 0.0 0.0 1.0
214 1 0.37189910223264233 -1.684455081725251 6.173896074423483 0.0 0.0 1.0
215 1 1.0407970620758862 1.9793762609066305 2.2806296401463584 0.0 0.0 1.0
216 1 4.846527149418722 1.8410140001972988 1.5353179079214776 0.0 0.0 1.0
217 1 -2.141908632581545 2.377642581054445 2.6240242282506956 0.0 0.0 1.0
218 1 1.0148240808080375 0.6593253806266491 6.219319422804768 0.0 0.0 1.0
219 1 2.3517479210468863 2.9848539556955656 0.22079247344093741 0.0 0.0 1.0
220 1 -0.5314327615487785 -4.165508054106539 4.269964145668582 0.0 0.0 1.0
221 1 1.6084141183957827 -2.0079564333125663 5.484216405848786 0.0 0.0 1.0
222 1 -3.6819499365616783 -0.46900060358591583 5.056632064976534 0.0 0.0 1.0
223 1 -6.091689269180344 -0.8689005158308779 0.6110746103206518 0.0 0.0 1.0
224 1 2.1574952107527263 -3.653221947767045 3.170453693352125 0.0 0.0 1.0
225 1 -1.0939663586928654 1.2670306867552654 0.29772094832716867 0.0 0.0 1.0
226 1 3.237335740868323 2.0249260075280073 0.16181056447665698 0.0 0.0 1.0
227 1 0.3857281533193029 3.5531852367801204 3.192773812809162 0.0 0.0 1.0
228 1 1.785787965418648 2.2725359988572693 2.0427785472779214 0.0 0.0 1.0
229 1 0.9579365086975993 -0.9036169525860634 0.8954490787527294 0.0 0.0 1.0
230 1 3.7270233144935423 -0.26912304709809304 0.5863951069793188 0.0 0.0 1.0
231 1 -1.4781363443319697 -4.357212042761913 4.59638551065657 0.0 0.0 1.0
232 1 -0.5581548711094505 -1.9810248884110917 1.5477920022445495 0.0 0.0 1.0
233 1 2.452567847425599 -1.6252668633981568 1.419210417903173 0.0 0.0 1.0
234 1 0.6271703749470919 0.23992124281766858 5.598819270090006 0.0 0.0 1.0
235 1 -1.7946161280491353 0.0013164838636174987 4.493464099877758 0.0 0.0 1.0
236 1 3.3700658431494794 -1.1823398635545836 5.494941418868522 0.0 0.0 1.0
237 1 -0.8117076801151001 -4.287098815478646 3.2520404361316233 0.0 0.0 1.0
238 1 -2.2270993118271143 -2.894060473719238 2.370322003466817 0.0 0.0 1.0
239 1 1.143384614192012 -0.7947442008687001 4.23088459588252 0.0 0.0 1.0
240 1 2.996385417646027 0.8159703937990047 2.70788456032053 0.0 0.0 1.0
241 1 -2.6945924824815966 0.21254864583341146 3.940564118160498 0.0 0.0 1.0
242 1 1.502475775217017 -2.9520262004959594 0.28236499718827085 0.0 0.0 1.0
243 1 0.5698374914957751 -6.32331746687882 0.8199917543742349 0.0 0.0 1.0
244 1 -1.7538482833516644 0.41271954974283137 1.5565778946749311 0.0 0.0 1.0
245 1 3.853526221319042 -1.623241199608629 4.98022542635226 0.0 0.0 1.0
246 1 -4.328707948386354 -0.5089684964504879 2.418515287350811 0.0 0.0 1.0
247 1 0.11841834101711168 1.5801804026187316 6.202065489868817 0.0 0.0 1.0
248 1 -1.0920283019436574 -1.0455298534515005 0.6594102824358002 0.0 0.0 1.0
249 1 -0.14754633411662155 -3.849605716926028 1.068224570776658 0.0 0.0 1.0
250 1 1.4051652284092464 -3.7934176664982173 1.3753166355225392 0.0 0.0 1.0
251 1 3.3883388381498665 -4.4154663428894825 1.9895181405399354 0.0 0.0 1.0
252 1 1.803199343685552 6.086840610783758 1.8401393259146641 0.0 0.0 1.0
253 1 -2.3435749320561676 4.506704917606154 1.581202837748391 0.0 0.0 1.0
254 1 2.7032260959650087 2.801624148056472 3.4969813335532187 0.0 0.0 1.0
255 1 5.768006946409998 1.8010233111942668 2.7294301192131116 0.0 0.0 1.0
256 1 -5.405288268839985 -1.8547004168636048 2.121749863738035 0.0 0.0 1.0
257 1 1.69994857387116 5.0016459543707645 3.2361135705511423 0.0 0.0 1.0
258 1 4.410239448002752 2.52489085913272 3.7755709654693397 0.0 0.0 1.0
259 1 -1.8779021080386804 2.203291497658779 5.936730513720831 0.0 0.0 1.0
260 1 -5.206043906900792 -0.14024968174369506 3.0796251003457074 0.0 0.0 1.0
261 1 -2.9380358704971807 -3.4565979413713452 2.1825630489585346 0.0 0.0 1.0
262 1 4.962280765988218 1.8285085665455325 3.434005666087443 0.0 0.0 1.0
263 1 -1.8517335280987894 -1.2515919045627615 1.7479540262464033 0.0 0.0 1.0
264 1 0.4261689993629981 0.5379142100712793 3.312176644828574 0.0 0.0 1.0
265 1 -4.107203083756144 -1.5854550420439903 3.7479760783830693 0.0 0.0 1.0
266 1 2.973353643046503 1.3536679831781335 3.923897387968884 0.0 0.0 1.0
267 1 4.451398647789252 0.32074100867446287 3.3958198512930897 0.0 0.0 1.0
268 1 -1.1453818742347188 3.0175656100324235 1.7472735534730575 0.0 0.0 1.0
269 1 0.40536739458371723 3.350697952022578 1.6186126952420488 0.0 0.0 1.0
270 1 0.9544637265484764 4.2018283662732925 2.662552897067768 0.0 0.0 1.0
271 1 2.456938489189459 3.5872077137352236 1.2714218531831487 0.0 0.0 1.0
272 1 -2.773046923356328 -0.7457292835126212 2.513825377781079 0.0 0.0 1.0
273 1 2.5166378565205574 -4.3352121006643545 2.847160081154994 0.0 0.0 1.0
274 1 3.765330113506599 -1.174352756719305 0.6395300475090246 0.0 0.0 1.0
275 1 -4.138609164283366 -1.3360098354793761 0.29023235651034957 0.0 0.0 1.0
276 1 -3.5728940848202266 2.892019521721961 1.985186080993208 0.0 0.0 1.0
277 1 -2.5426918901626387 -3.8951023406805523 4.621996557860082 0.0 0.0 1.0
278 1 -2.9968905252632516 -0.5388319226886114 0.24288375498789408 0.0 0.0 1.0
279 1 -2.7910788980421612 -4.456343177126025 3.478877209143932 0.0 0.0 1.0
280 1 -3.521496745300905 1.5972158081718284 0.6506603120295937 0.0 0.0 1.0
281 1 4.003524108774114 2.873264110565028 1.5903483293130523 0.0 0.0 1.0
282 1 2.301549499302179 2.2041522425753657 2.818472731447761 0.0 0.0 1.0
283 1 1.0597351153636192 0.4935255088603914 1.5459556109620771 0.0 0.0 1.0
284 1 -2.437858833277815 -1.1620518010153105 0.21641178764149036 0.0 0.0 1.0
285 1 2.0655676620940215 3.8503188335546423 4.436306091772599 0.0 0.0 1.0
286 1 -0.9547558440129715 -2.32071260505105 0.35155776608233025 0.0 0.0 1.0
287 1 -0.9796000916776003 -3.3386153554658704 5.792527924816335 0.0 0.0 1.0
288 1 4.3799007360101925 3.3960193876174047 3.429523236982688 0.0 0.0 1.0
289 1 -6.3240299177167945 0.41225301615215826 1.9170925194490611 0.0 0.0 1.0
290 1 3.5906492082534647 3.5265269605748566 0.0997106272619033 0.0 0.0 1.0
291 1 2.7090327543522768 -3.3843430907054666 4.770598991878606 0.0 0.0 1.0
292 1 -0.9118436958402873 -0.2916762516112379 4.042089886161659 0.0 0.0 1.0
293 1 -1.3947273410346412 -0.7115251128280332 4.772396432147328 0.0 0.0 1.0
294 1 0.5673848561365507 -5.737677091671342 0.18827496821012946 0.0 0.0 1.0
295 1 -2.337608135186177 2.448165100023101 1.6370250607791192 0.0 0.0 1.0
296 1 0.9128171791987383 -3.100356166663241 1.2501123586582876 0.0 0.0 1.0
297 1 2.7668803058993166 1.2635036392014767 5.725656501691779 0.0 0.0 1.0
298 1 -2.0821824122604538 -2.1673192269627815 2.7568658463580498 0.0 0.0 1.0
299 1 -0.6615372044681217 3.572146716333984 3.0769530406657584 0.0 0.0 1.0
300 1 -1.9921359982755238 -6.1725389327201245 1.7204689450302033 0.0 0.0 1.0
301 1 -1.0712647941983624 -2.0520218143767983 5.388304267391721 0.0 0.0 1.0
302 1 -2.5256660647238407 0.11085829270098889 2.196105504588261 0.0 0.0 1.0
303 1 2.3763456132071386 -1.9290155392626893 4.071431925412475 0.0 0.0 1.0
304 1 0.7453959134084078 -0.7488423386365296 2.464499298743695 0.0 0.0 1.0
305 1 -5.153200301235857 -1.142816525310279 0.7567533406154838 0.0 0.0 1.0
306 1 0.3037467157634175 6.483798797927204 1.7486030232606244 0.0 0.0 1.0
307 1 -4.1935596274554845 -2.3741718412469215 1.1089348024622412 0.0 0.0 1.0
308 1 4.892006224106807 -2.5304516643769657 3.043431040985329 0.0 0.0 1.0
309 1 -1.1324963714187162 3.333955606034442 0.5562698391417515 0.0 0.0 1.0
310 1 -0.4313556295092467 1.728647513877474 3.808328314725626 0.0 0.0 1.0
311 1 -1.9366814483123143 3.2685150225160453 0.06081494530109749 0.0 0.0 1.0
312 1 4.335959779509798 -0.9498067779991857 4.558578928002175 0.0 0.0 1.0
313 1 -0.02706594225005363 -0.8624883387114518 2.1740118081906745 0.0 0.0 1.0
314 1 1.6499675834131478 4.004062247562204 3.2184857528273523 0.0 0.0 1.0
315 1 -4.302513596710376 0.8253599952434599 0.6288013440788073 0.0 0.0 1.0
316 1 -4.448512815695926 0.4273303933889319 2.6186254451448665 0.0 0.0 1.0
317 1 2.6225455798673205 -5.427472098344606 2.2456887995873243 0.0 0.0 1.0
318 1 -4.599764080884322 4.405017294991556 0.9099461314417461 0.0 0.0 1.0
319 1 -5.699864684236671 0.21266863773081662 0.9462308520260636 0.0 0.0 1.0
320 1 -2.7137815659515154 -2.2690618733302377 5.473215419877682 0.0 0.0 1.0
321 1 2.054065929698163 -2.9240460291736916 4.660597272448326 0.0 0.0 1.0
322 1 5.707907023165225 2.2041087781834303 1.7538496450912944 0.0 0.0 1.0
323 1 -3.94771497493233 4.81135559096018 2.261979552014352 0.0 0.0 1.0
324 1 -0.1832176254036157 0.3153219219215464 0.9437464955128851 0.0 0.0 1.0
325 1 1.414192103979929 -3.805788791718277 2.846167388803646 0.0 0.0 1.0
326 1 -2.938572381720169 4.65296231480138 3.7355105774217887 0.0 0.0 1.0
327 1 -0.23736985365654342 4.895956845064217 0.48552492052591567 0.0 0.0 1.0
328 1 -1.6085258713827653 4.670127982471436 0.20459810638999976 0.0 0.0 1.0
329 1 4.217888900592364 1.1896126583976827 3.0864180893110307 0.0 0.0 1.0
330 1 -3.5299410193055905 1.6145277867952639 5.566161798229511 0.0 0.0 1.0
331 1 4.579593776255565 2.208376317450106 2.4806218053892843 0.0 0.0 1.0
332 1 -4.543098816010159 1.0000168534427853 3.9912093017642807 0.0 0.0 1.0
333 1 -1.0540330256468051 6.433269194364191 0.5876580056064511 0.0 0.0 1.0
334 1 2.98261254241025 -2.9008686419991725 0.2020758916598769 0.0 0.0 1.0
335 1 2.938876007704762 -2.06692965122926 3.529643792685862 0.0 0.0 1.0
336 1 -4.205456814900181 0.09723252497531955 4.642676783661101 0.0 0.0 1.0
337 1 1.1377269531242846 -3.490321393198843 4.102873146411219 0.0 0.0 1.0
338 1 -4.672480360387748 1.6827140422483557 1.2890907930670648 0.0 0.0 1.0
339 1 -1.7924976713796634 3.4540726995464124 2.131601698195839 0.0 0.0 1.0
340 1 -4.249840305154446 0.5610708475593031 3.444793300645606 0.0 0.0 1.0
341 1 -2.09146453281941 0.7208904480508954 3.9139057110448445 0.0 0.0 1.0
342 1 -1.6464296416990742 -2.291720955435676 4.406094565627595 0.0 0.0 1.0
343 1 1.3099094557605488 -0.5556482553871362 3.0808625354001973 0.0 0.0 1.0
344 1 2.351647632537414 -0.5747871634384452 3.6707833257080984 0.0 0.0 1.0
345 1 1.4851229134683779 -2.882860098402547 2.8868062033773785 0.0 0.0 1.0
346 1 -0.23892767786998728 -0.9201991202342232 3.7364038554241774 0.0 0.0 1.0
347 1 -1.7723432217967259 4.079507428861768 3.361608458548603 0.0 0.0 1.0
348 1 -2.0364424685845126 -1.4934575213041223 5.995186004631846 0.0 0.0 1.0
349 1 5.823326312794611 -0.947024333255515 1.7044786037179578 0.0 0.0 1.0
350 1 -3.3978575594407987 0.3647835850210081 2.1316382904255655 0.0 0.0 1.0
351 1 -2.015681383867802 -1.1663278875442182 5.270889099671064 0.0 0.0 1.0
352 1 5.08411430952055 -1.609362936866296 0.16493628783026332 0.0 0.0 1.0
353 1 3.2145619206215263 -1.7521272012981992 1.817304608325501 0.0 0.0 1.0
354 1 3.9727397619193425 4.109326622234526 2.8716767113667254 0.0 0.0 1.0
355 1 5.481901043977941 -0.08954173308956762 2.3055990217689337 0.0 0.0 1.0
356 1 -0.4092656461144098 -2.1236560849147033 6.096666523756301 0.0 0.0 1.0
357 1 1.8514472541368592 -2.8019816691833332 1.1126106253872523 0.0 0.0 1.0
358 1 -3.832035127980138 -4.662055940623475 2.329585548976369 0.0 0.0 1.0
359 1 -2.0644333497697245 -2.8814985006259146 3.9841909155380106 0.0 0.0 1.0
360 1 -2.2002695108799 -5.085347911119531 3.094195470646804 0.0 0.0 1.0
361 1 -1.4668762149879162 1.900001292903061 2.431196773214054 0.0 0.0 1.0
362 1 -0.7884784067231154 -3.1741823088473233 0.33632126798956086 0.0 0.0 1.0
363 1 0.6179408468372649 3.2559711020752453 5.896085754350958 0.0 0.0 1.0
364 1 0.05562338340483044 -1.9424654400974777 3.5932087131973045 0.0 0.0 1.0
365 1 -2.7793893250489505 2.4073602959566873 5.16944052498751 0.0 0.0 1.0
366 1 3.2003610158534603 2.8226247453879263 0.5094067952892825 0.0 0.0 1.0
367 1 6.074369918044912 -0.0028409266769330675 1.4395444199267027 0.0 0.0 1.0
368 1 0.11485439802670053 2.5552046702052835 1.1175046218710913 0.0 0.0 1.0
369 1 -3.418708382835299 3.897183564956421 0.9435092522132382 0.0 0.0 1.0
370 1 -2.466391678134344 -2.8613427952276167 4.673759942790567 0.0 0.0 1.0
371 1 3.494245311923517 -2.388091817609684 2.4580335316069597 0.0 0.0 1.0
372 1 1.9539923543293052 3.739350774675188 0.03277980723034065 0.0 0.0 1.0
373 1 3.5838348605313444 -0.42107152352728616 4.57611766991004 0.0 0.0 1.0
374 1 -0.3860777119836032 -3.0403311541546083 5.1595700244531555 0.0 0.0 1.0
375 1 -6.307161078173651 1.3516519156248141 1.9267474245043823 0.0 0.0 1.0
376 1 -2.013573397347283 1.2096448356078564 2.3021786993486866 0.0 0.0 1.0
377 1 3.1250099683837123 3.627019656242437 4.606231166958608 0.0 0.0 1.0
378 1 3.1020956097805685 -3.6161410660617714 2.2606574096701815 0.0 0.0 1.0
379 1 -3.3550752075870784 -1.8992249719463399 5.00241783284653 0.0 0.0 1.0
380 1 -5.080470385749641 2.03259610046675 2.2362826509205185 0.0 0.0 1.0
381 1 2.8580743707850726 1.544477303258507 2.8577681893205718 0.0 0.0 1.0
382 1 -6.33811519618793 0.7174121197511836 0.5581614268500396 0.0 0.0 1.0
383 1 3.6377222082732628 1.407719979534484 5.54636455490078 0.0 0.0 1.0
384 1 -4.406448903204244 -4.2042071658973486 1.67950810213695 0.0 0.0 1.0
385 1 -4.238829194096251 -5.127035985191479 0.30561387194900064 0.0 0.0 1.0
386 1 -0.145743234558244 -3.37726343308865 3.0697565191053884 0.0 0.0 1.0
387 1 0.23035578990779018 -2.5976025584573983 1.248652892806073 0.0 0.0 1.0
388 1 2.3813418057720397 -0.05935963354680305 4.859883947591519 0.0 0.0 1.0
389 1 -1.6729300866463108 -5.069637667402583 2.1731796059630755 0.0 0.0 1.0
390 1 0.8727759605176408 -0.7609737795240898 5.085790720079528 0.0 0.0 1.0
391 1 -4.24415317721226 -0.6920152861333818 3.809659317889659 0.0 0.0 1.0
392 1 -1.123195709021981 0.578193021794346 0.7933126425804783 0.0 0.0 1.0
393 1 0.5158944704618941 5.543768666797398 0.5095776821670924 0.0 0.0 1.0
394 1 -0.7429313061495585 1.674324032744178 2.232280015671761 0.0 0.0 1.0
395 1 4.642105333434812 0.11826683951009617 0.0364588237663252 0.0 0.0 1.0
396 1 0.6239326419600568 -2.629740570563685 2.949017174522387 0.0 0.0 1.0
397 1 -0.1922869729036593 3.7623446366954143 3.9522652075859477 0.0 0.0 1.0