LAMMPS data file from restart file: timestep = 0, procs = 1

11200 atoms

3 atom types

-10.00000000000e+01 10.00000000000e+01 xlo xhi
-10.00000000000e+01 10.00000000000e+01 ylo yhi
-10.00000000000e+01 10.00000000000e+01 zlo zhi

Masses

1 1.0
2 1.0
3 1.0

Atoms

4002 2 -29.0 -30.0 -5.51 0.0 0.0 1.0
4003 2 -28.0 -30.0 -5.51 0.0 0.0 1.0
4061 2 -30.0 -29.0 -5.51 0.0 0.0 1.0
4062 2 -29.0 -29.0 -5.51 0.0 0.0 1.0
4063 2 -28.0 -29.0 -5.51 0.0 0.0 1.0
4121 2 -30.0 -28.0 -5.51 0.0 0.0 1.0
4122 2 -29.0 -28.0 -5.51 0.0 0.0 1.0
4123 2 -28.0 -28.0 -5.51 0.0 0.0 1.0
4004 2 -27.0 -30.0 -5.51 0.0 0.0 1.0
4005 2 -26.0 -30.0 -5.51 0.0 0.0 1.0
4064 2 -27.0 -29.0 -5.51 0.0 0.0 1.0
4065 2 -26.0 -29.0 -5.51 0.0 0.0 1.0
4124 2 -27.0 -28.0 -5.51 0.0 0.0 1.0
4125 2 -26.0 -28.0 -5.51 0.0 0.0 1.0
4006 2 -25.0 -30.0 -5.51 0.0 0.0 1.0
4007 2 -24.0 -30.0 -5.51 0.0 0.0 1.0
4008 2 -23.0 -30.0 -5.51 0.0 0.0 1.0
4066 2 -25.0 -29.0 -5.51 0.0 0.0 1.0
4067 2 -24.0 -29.0 -5.51 0.0 0.0 1.0
4068 2 -23.0 -29.0 -5.51 0.0 0.0 1.0
4126 2 -25.0 -28.0 -5.51 0.0 0.0 1.0
4127 2 -24.0 -28.0 -5.51 0.0 0.0 1.0
4128 2 -23.0 -28.0 -5.51 0.0 0.0 1.0
4009 2 -22.0 -30.0 -5.51 0.0 0.0 1.0
4010 2 -21.0 -30.0 -5.51 0.0 0.0 1.0
4011 2 -20.0 -30.0 -5.51 0.0 0.0 1.0
4069 2 -22.0 -29.0 -5.51 0.0 0.0 1.0
4070 2 -21.0 -29.0 -5.51 0.0 0.0 1.0
4071 2 -20.0 -29.0 -5.51 0.0 0.0 1.0
4129 2 -22.0 -28.0 -5.51 0.0 0.0 1.0
4130 2 -21.0 -28.0 -5.51 0.0 0.0 1.0
4131 2 -20.0 -28.0 -5.51 0.0 0.0 1.0
4012 2 -19.0 -30.0 -5.51 0.0 0.0 1.0
4013 2 -18.0 -30.0 -5.51 0.0 0.0 1.0
4014 2 -17.0 -30.0 -5.51 0.0 0.0 1.0
4072 2 -19.0 -29.0 -5.51 0.0 0.0 1.0
4073 2 -18.0 -29.0 -5.51 0.0 0.0 1.0
4074 2 -17.0 -29.0 -5.51 0.0 0.0 1.0
4132 2 -19.0 -28.0 -5.51 0.0 0.0 1.0
4133 2 -18.0 -28.0 -5.51 0.0 0.0 1.0
4134 2 -17.0 -28.0 -5.51 0.0 0.0 1.0
4015 2 -16.0 -30.0 -5.51 0.0 0.0 1.0
4016 2 -15.0 -30.0 -5.51 0.0 0.0 1.0
4017 2 -14.0 -30.0 -5.51 0.0 0.0 1.0
4075 2 -16.0 -29.0 -5.51 0.0 0.0 1.0
4076 2 -15.0 -29.0 -5.51 0.0 0.0 1.0
4077 2 -14.0 -29.0 -5.51 0.0 0.0 1.0
4135 2 -16.0 -28.0 -5.51 0.0 0.0 1.0
4136 2 -15.0 -28.0 -5.51 0.0 0.0 1.0
4137 2 -14.0 -28.0 -5.51 0.0 0.0 1.0
4018 2 -13.0 -30.0 -5.51 0.0 0.0 1.0
4019 2 -12.0 -30.0 -5.51 0.0 0.0 1.0
4078 2 -13.0 -29.0 -5.51 0.0 0.0 1.0
4079 2 -12.0 -29.0 -5.51 0.0 0.0 1.0
4138 2 -13.0 -28.0 -5.51 0.0 0.0 1.0
4139 2 -12.0 -28.0 -5.51 0.0 0.0 1.0
4020 2 -11.0 -30.0 -5.51 0.0 0.0 1.0
4021 2 -10.0 -30.0 -5.51 0.0 0.0 1.0
4022 2 -9.0 -30.0 -5.51 0.0 0.0 1.0
4080 2 -11.0 -29.0 -5.51 0.0 0.0 1.0
4081 2 -10.0 -29.0 -5.51 0.0 0.0 1.0
4082 2 -9.0 -29.0 -5.51 0.0 0.0 1.0
4140 2 -11.0 -28.0 -5.51 0.0 0.0 1.0
4141 2 -10.0 -28.0 -5.51 0.0 0.0 1.0
4142 2 -9.0 -28.0 -5.51 0.0 0.0 1.0
4023 2 -8.0 -30.0 -5.51 0.0 0.0 1.0
4024 2 -7.0 -30.0 -5.51 0.0 0.0 1.0
4025 2 -6.0 -30.0 -5.51 0.0 0.0 1.0
4083 2 -8.0 -29.0 -5.51 0.0 0.0 1.0
4084 2 -7.0 -29.0 -5.51 0.0 0.0 1.0
4085 2 -6.0 -29.0 -5.51 0.0 0.0 1.0
4143 2 -8.0 -28.0 -5.51 0.0 0.0 1.0
4144 2 -7.0 -28.0 -5.51 0.0 0.0 1.0
4145 2 -6.0 -28.0 -5.51 0.0 0.0 1.0
4026 2 -5.0 -30.0 -5.51 0.0 0.0 1.0
4027 2 -4.0 -30.0 -5.51 0.0 0.0 1.0
4028 2 -3.0 -30.0 -5.51 0.0 0.0 1.0
4086 2 -5.0 -29.0 -5.51 0.0 0.0 1.0
4087 2 -4.0 -29.0 -5.51 0.0 0.0 1.0
4088 2 -3.0 -29.0 -5.51 0.0 0.0 1.0
4146 2 -5.0 -28.0 -5.51 0.0 0.0 1.0
4147 2 -4.0 -28.0 -5.51 0.0 0.0 1.0
4148 2 -3.0 -28.0 -5.51 0.0 0.0 1.0
4029 2 -2.0 -30.0 -5.51 0.0 0.0 1.0
4030 2 -1.0 -30.0 -5.51 0.0 0.0 1.0
4089 2 -2.0 -29.0 -5.51 0.0 0.0 1.0
4090 2 -1.0 -29.0 -5.51 0.0 0.0 1.0
4149 2 -2.0 -28.0 -5.51 0.0 0.0 1.0
4150 2 -1.0 -28.0 -5.51 0.0 0.0 1.0
4181 2 -30.0 -27.0 -5.51 0.0 0.0 1.0
4182 2 -29.0 -27.0 -5.51 0.0 0.0 1.0
4183 2 -28.0 -27.0 -5.51 0.0 0.0 1.0
4241 2 -30.0 -26.0 -5.51 0.0 0.0 1.0
4242 2 -29.0 -26.0 -5.51 0.0 0.0 1.0
4243 2 -28.0 -26.0 -5.51 0.0 0.0 1.0
4184 2 -27.0 -27.0 -5.51 0.0 0.0 1.0
4185 2 -26.0 -27.0 -5.51 0.0 0.0 1.0
4244 2 -27.0 -26.0 -5.51 0.0 0.0 1.0
4245 2 -26.0 -26.0 -5.51 0.0 0.0 1.0
4186 2 -25.0 -27.0 -5.51 0.0 0.0 1.0
4187 2 -24.0 -27.0 -5.51 0.0 0.0 1.0
4188 2 -23.0 -27.0 -5.51 0.0 0.0 1.0
4246 2 -25.0 -26.0 -5.51 0.0 0.0 1.0
4247 2 -24.0 -26.0 -5.51 0.0 0.0 1.0
4248 2 -23.0 -26.0 -5.51 0.0 0.0 1.0
4189 2 -22.0 -27.0 -5.51 0.0 0.0 1.0
4190 2 -21.0 -27.0 -5.51 0.0 0.0 1.0
4191 2 -20.0 -27.0 -5.51 0.0 0.0 1.0
4249 2 -22.0 -26.0 -5.51 0.0 0.0 1.0
4250 2 -21.0 -26.0 -5.51 0.0 0.0 1.0
4251 2 -20.0 -26.0 -5.51 0.0 0.0 1.0
4192 2 -19.0 -27.0 -5.51 0.0 0.0 1.0
4193 2 -18.0 -27.0 -5.51 0.0 0.0 1.0
4194 2 -17.0 -27.0 -5.51 0.0 0.0 1.0
4252 2 -19.0 -26.0 -5.51 0.0 0.0 1.0
4253 2 -18.0 -26.0 -5.51 0.0 0.0 1.0
4254 2 -17.0 -26.0 -5.51 0.0 0.0 1.0
4195 2 -16.0 -27.0 -5.51 0.0 0.0 1.0
4196 2 -15.0 -27.0 -5.51 0.0 0.0 1.0
4197 2 -14.0 -27.0 -5.51 0.0 0.0 1.0
4255 2 -16.0 -26.0 -5.51 0.0 0.0 1.0
4256 2 -15.0 -26.0 -5.51 0.0 0.0 1.0
4257 2 -14.0 -26.0 -5.51 0.0 0.0 1.0
4198 2 -13.0 -27.0 -5.51 0.0 0.0 1.0
4199 2 -12.0 -27.0 -5.51 0.0 0.0 1.0
4258 2 -13.0 -26.0 -5.51 0.0 0.0 1.0
4259 2 -12.0 -26.0 -5.51 0.0 0.0 1.0
4200 2 -11.0 -27.0 -5.51 0.0 0.0 1.0
4201 2 -10.0 -27.0 -5.51 0.0 0.0 1.0
4202 2 -9.0 -27.0 -5.51 0.0 0.0 1.0
4260 2 -11.0 -26.0 -5.51 0.0 0.0 1.0
4261 2 -10.0 -26.0 -5.51 0.0 0.0 1.0
4262 2 -9.0 -26.0 -5.51 0.0 0.0 1.0
4203 2 -8.0 -27.0 -5.51 0.0 0.0 1.0
4204 2 -7.0 -27.0 -5.51 0.0 0.0 1.0
4205 2 -6.0 -27.0 -5.51 0.0 0.0 1.0
4263 2 -8.0 -26.0 -5.51 0.0 0.0 1.0
4264 2 -7.0 -26.0 -5.51 0.0 0.0 1.0
4265 2 -6.0 -26.0 -5.51 0.0 0.0 1.0
4206 2 -5.0 -27.0 -5.51 0.0 0.0 1.0
4207 2 -4.0 -27.0 -5.51 0.0 0.0 1.0
4208 2 -3.0 -27.0 -5.51 0.0 0.0 1.0
4266 2 -5.0 -26.0 -5.51 0.0 0.0 1.0
4267 2 -4.0 -26.0 -5.51 0.0 0.0 1.0
4268 2 -3.0 -26.0 -5.51 0.0 0.0 1.0
4209 2 -2.0 -27.0 -5.51 0.0 0.0 1.0
4210 2 -1.0 -27.0 -5.51 0.0 0.0 1.0
4269 2 -2.0 -26.0 -5.51 0.0 0.0 1.0
4270 2 -1.0 -26.0 -5.51 0.0 0.0 1.0
4301 2 -30.0 -25.0 -5.51 0.0 0.0 1.0
4302 2 -29.0 -25.0 -5.51 0.0 0.0 1.0
4303 2 -28.0 -25.0 -5.51 0.0 0.0 1.0
4361 2 -30.0 -24.0 -5.51 0.0 0.0 1.0
4362 2 -29.0 -24.0 -5.51 0.0 0.0 1.0
4363 2 -28.0 -24.0 -5.51 0.0 0.0 1.0
4421 2 -30.0 -23.0 -5.51 0.0 0.0 1.0
4422 2 -29.0 -23.0 -5.51 0.0 0.0 1.0
4423 2 -28.0 -23.0 -5.51 0.0 0.0 1.0
4304 2 -27.0 -25.0 -5.51 0.0 0.0 1.0
4305 2 -26.0 -25.0 -5.51 0.0 0.0 1.0
4364 2 -27.0 -24.0 -5.51 0.0 0.0 1.0
4365 2 -26.0 -24.0 -5.51 0.0 0.0 1.0
4424 2 -27.0 -23.0 -5.51 0.0 0.0 1.0
4425 2 -26.0 -23.0 -5.51 0.0 0.0 1.0
4306 2 -25.0 -25.0 -5.51 0.0 0.0 1.0
4307 2 -24.0 -25.0 -5.51 0.0 0.0 1.0
4308 2 -23.0 -25.0 -5.51 0.0 0.0 1.0
4366 2 -25.0 -24.0 -5.51 0.0 0.0 1.0
4367 2 -24.0 -24.0 -5.51 0.0 0.0 1.0
4368 2 -23.0 -24.0 -5.51 0.0 0.0 1.0
4426 2 -25.0 -23.0 -5.51 0.0 0.0 1.0
4427 2 -24.0 -23.0 -5.51 0.0 0.0 1.0
4428 2 -23.0 -23.0 -5.51 0.0 0.0 1.0
4309 2 -22.0 -25.0 -5.51 0.0 0.0 1.0
4310 2 -21.0 -25.0 -5.51 0.0 0.0 1.0
4311 2 -20.0 -25.0 -5.51 0.0 0.0 1.0
4369 2 -22.0 -24.0 -5.51 0.0 0.0 1.0
4370 2 -21.0 -24.0 -5.51 0.0 0.0 1.0
4371 2 -20.0 -24.0 -5.51 0.0 0.0 1.0
4429 2 -22.0 -23.0 -5.51 0.0 0.0 1.0
4430 2 -21.0 -23.0 -5.51 0.0 0.0 1.0
4431 2 -20.0 -23.0 -5.51 0.0 0.0 1.0
4312 2 -19.0 -25.0 -5.51 0.0 0.0 1.0
4313 2 -18.0 -25.0 -5.51 0.0 0.0 1.0
4314 2 -17.0 -25.0 -5.51 0.0 0.0 1.0
4372 2 -19.0 -24.0 -5.51 0.0 0.0 1.0
4373 2 -18.0 -24.0 -5.51 0.0 0.0 1.0
4374 2 -17.0 -24.0 -5.51 0.0 0.0 1.0
4432 2 -19.0 -23.0 -5.51 0.0 0.0 1.0
4433 2 -18.0 -23.0 -5.51 0.0 0.0 1.0
4434 2 -17.0 -23.0 -5.51 0.0 0.0 1.0
4315 2 -16.0 -25.0 -5.51 0.0 0.0 1.0
4316 2 -15.0 -25.0 -5.51 0.0 0.0 1.0
4317 2 -14.0 -25.0 -5.51 0.0 0.0 1.0
4375 2 -16.0 -24.0 -5.51 0.0 0.0 1.0
4376 2 -15.0 -24.0 -5.51 0.0 0.0 1.0
4377 2 -14.0 -24.0 -5.51 0.0 0.0 1.0
4435 2 -16.0 -23.0 -5.51 0.0 0.0 1.0
4436 2 -15.0 -23.0 -5.51 0.0 0.0 1.0
4437 2 -14.0 -23.0 -5.51 0.0 0.0 1.0
4318 2 -13.0 -25.0 -5.51 0.0 0.0 1.0
4319 2 -12.0 -25.0 -5.51 0.0 0.0 1.0
4378 2 -13.0 -24.0 -5.51 0.0 0.0 1.0
4379 2 -12.0 -24.0 -5.51 0.0 0.0 1.0
4438 2 -13.0 -23.0 -5.51 0.0 0.0 1.0
4439 2 -12.0 -23.0 -5.51 0.0 0.0 1.0
4320 2 -11.0 -25.0 -5.51 0.0 0.0 1.0
4321 2 -10.0 -25.0 -5.51 0.0 0.0 1.0
4322 2 -9.0 -25.0 -5.51 0.0 0.0 1.0
4380 2 -11.0 -24.0 -5.51 0.0 0.0 1.0
4381 2 -10.0 -24.0 -5.51 0.0 0.0 1.0
4382 2 -9.0 -24.0 -5.51 0.0 0.0 1.0
4440 2 -11.0 -23.0 -5.51 0.0 0.0 1.0
4441 2 -10.0 -23.0 -5.51 0.0 0.0 1.0
4442 2 -9.0 -23.0 -5.51 0.0 0.0 1.0
4323 2 -8.0 -25.0 -5.51 0.0 0.0 1.0
4324 2 -7.0 -25.0 -5.51 0.0 0.0 1.0
4325 2 -6.0 -25.0 -5.51 0.0 0.0 1.0
4383 2 -8.0 -24.0 -5.51 0.0 0.0 1.0
4384 2 -7.0 -24.0 -5.51 0.0 0.0 1.0
4385 2 -6.0 -24.0 -5.51 0.0 0.0 1.0
4443 2 -8.0 -23.0 -5.51 0.0 0.0 1.0
4444 2 -7.0 -23.0 -5.51 0.0 0.0 1.0
4445 2 -6.0 -23.0 -5.51 0.0 0.0 1.0
4326 2 -5.0 -25.0 -5.51 0.0 0.0 1.0
4327 2 -4.0 -25.0 -5.51 0.0 0.0 1.0
4328 2 -3.0 -25.0 -5.51 0.0 0.0 1.0
4386 2 -5.0 -24.0 -5.51 0.0 0.0 1.0
4387 2 -4.0 -24.0 -5.51 0.0 0.0 1.0
4388 2 -3.0 -24.0 -5.51 0.0 0.0 1.0
4446 2 -5.0 -23.0 -5.51 0.0 0.0 1.0
4447 2 -4.0 -23.0 -5.51 0.0 0.0 1.0
4448 2 -3.0 -23.0 -5.51 0.0 0.0 1.0
4329 2 -2.0 -25.0 -5.51 0.0 0.0 1.0
4330 2 -1.0 -25.0 -5.51 0.0 0.0 1.0
4389 2 -2.0 -24.0 -5.51 0.0 0.0 1.0
4390 2 -1.0 -24.0 -5.51 0.0 0.0 1.0
4449 2 -2.0 -23.0 -5.51 0.0 0.0 1.0
4450 2 -1.0 -23.0 -5.51 0.0 0.0 1.0
4481 2 -30.0 -22.0 -5.51 0.0 0.0 1.0
4482 2 -29.0 -22.0 -5.51 0.0 0.0 1.0
4483 2 -28.0 -22.0 -5.51 0.0 0.0 1.0
4541 2 -30.0 -21.0 -5.51 0.0 0.0 1.0
4542 2 -29.0 -21.0 -5.51 0.0 0.0 1.0
4543 2 -28.0 -21.0 -5.51 0.0 0.0 1.0
4601 2 -30.0 -20.0 -5.51 0.0 0.0 1.0
4602 2 -29.0 -20.0 -5.51 0.0 0.0 1.0
4603 2 -28.0 -20.0 -5.51 0.0 0.0 1.0
4484 2 -27.0 -22.0 -5.51 0.0 0.0 1.0
4485 2 -26.0 -22.0 -5.51 0.0 0.0 1.0
4544 2 -27.0 -21.0 -5.51 0.0 0.0 1.0
4545 2 -26.0 -21.0 -5.51 0.0 0.0 1.0
4604 2 -27.0 -20.0 -5.51 0.0 0.0 1.0
4605 2 -26.0 -20.0 -5.51 0.0 0.0 1.0
4486 2 -25.0 -22.0 -5.51 0.0 0.0 1.0
4487 2 -24.0 -22.0 -5.51 0.0 0.0 1.0
4488 2 -23.0 -22.0 -5.51 0.0 0.0 1.0
4546 2 -25.0 -21.0 -5.51 0.0 0.0 1.0
4547 2 -24.0 -21.0 -5.51 0.0 0.0 1.0
4548 2 -23.0 -21.0 -5.51 0.0 0.0 1.0
4606 2 -25.0 -20.0 -5.51 0.0 0.0 1.0
4607 2 -24.0 -20.0 -5.51 0.0 0.0 1.0
4608 2 -23.0 -20.0 -5.51 0.0 0.0 1.0
4489 2 -22.0 -22.0 -5.51 0.0 0.0 1.0
4490 2 -21.0 -22.0 -5.51 0.0 0.0 1.0
4491 2 -20.0 -22.0 -5.51 0.0 0.0 1.0
4549 2 -22.0 -21.0 -5.51 0.0 0.0 1.0
4550 2 -21.0 -21.0 -5.51 0.0 0.0 1.0
4551 2 -20.0 -21.0 -5.51 0.0 0.0 1.0
4609 2 -22.0 -20.0 -5.51 0.0 0.0 1.0
4610 2 -21.0 -20.0 -5.51 0.0 0.0 1.0
4611 2 -20.0 -20.0 -5.51 0.0 0.0 1.0
4492 2 -19.0 -22.0 -5.51 0.0 0.0 1.0
4493 2 -18.0 -22.0 -5.51 0.0 0.0 1.0
4494 2 -17.0 -22.0 -5.51 0.0 0.0 1.0
4552 2 -19.0 -21.0 -5.51 0.0 0.0 1.0
4553 2 -18.0 -21.0 -5.51 0.0 0.0 1.0
4554 2 -17.0 -21.0 -5.51 0.0 0.0 1.0
4612 2 -19.0 -20.0 -5.51 0.0 0.0 1.0
4613 2 -18.0 -20.0 -5.51 0.0 0.0 1.0
4614 2 -17.0 -20.0 -5.51 0.0 0.0 1.0
4495 2 -16.0 -22.0 -5.51 0.0 0.0 1.0
4496 2 -15.0 -22.0 -5.51 0.0 0.0 1.0
4497 2 -14.0 -22.0 -5.51 0.0 0.0 1.0
4555 2 -16.0 -21.0 -5.51 0.0 0.0 1.0
4556 2 -15.0 -21.0 -5.51 0.0 0.0 1.0
4557 2 -14.0 -21.0 -5.51 0.0 0.0 1.0
4615 2 -16.0 -20.0 -5.51 0.0 0.0 1.0
4616 2 -15.0 -20.0 -5.51 0.0 0.0 1.0
4617 2 -14.0 -20.0 -5.51 0.0 0.0 1.0
4498 2 -13.0 -22.0 -5.51 0.0 0.0 1.0
4499 2 -12.0 -22.0 -5.51 0.0 0.0 1.0
4558 2 -13.0 -21.0 -5.51 0.0 0.0 1.0
4559 2 -12.0 -21.0 -5.51 0.0 0.0 1.0
4618 2 -13.0 -20.0 -5.51 0.0 0.0 1.0
4619 2 -12.0 -20.0 -5.51 0.0 0.0 1.0
4500 2 -11.0 -22.0 -5.51 0.0 0.0 1.0
4501 2 -10.0 -22.0 -5.51 0.0 0.0 1.0
4502 2 -9.0 -22.0 -5.51 0.0 0.0 1.0
4560 2 -11.0 -21.0 -5.51 0.0 0.0 1.0
4561 2 -10.0 -21.0 -5.51 0.0 0.0 1.0
4562 2 -9.0 -21.0 -5.51 0.0 0.0 1.0
4620 2 -11.0 -20.0 -5.51 0.0 0.0 1.0
4621 2 -10.0 -20.0 -5.51 0.0 0.0 1.0
4622 2 -9.0 -20.0 -5.51 0.0 0.0 1.0
4503 2 -8.0 -22.0 -5.51 0.0 0.0 1.0
4504 2 -7.0 -22.0 -5.51 0.0 0.0 1.0
4505 2 -6.0 -22.0 -5.51 0.0 0.0 1.0
4563 2 -8.0 -21.0 -5.51 0.0 0.0 1.0
4564 2 -7.0 -21.0 -5.51 0.0 0.0 1.0
4565 2 -6.0 -21.0 -5.51 0.0 0.0 1.0
4623 2 -8.0 -20.0 -5.51 0.0 0.0 1.0
4624 2 -7.0 -20.0 -5.51 0.0 0.0 1.0
4625 2 -6.0 -20.0 -5.51 0.0 0.0 1.0
4506 2 -5.0 -22.0 -5.51 0.0 0.0 1.0
4507 2 -4.0 -22.0 -5.51 0.0 0.0 1.0
4508 2 -3.0 -22.0 -5.51 0.0 0.0 1.0
4566 2 -5.0 -21.0 -5.51 0.0 0.0 1.0
4567 2 -4.0 -21.0 -5.51 0.0 0.0 1.0
4568 2 -3.0 -21.0 -5.51 0.0 0.0 1.0
4626 2 -5.0 -20.0 -5.51 0.0 0.0 1.0
4627 2 -4.0 -20.0 -5.51 0.0 0.0 1.0
4628 2 -3.0 -20.0 -5.51 0.0 0.0 1.0
4509 2 -2.0 -22.0 -5.51 0.0 0.0 1.0
4510 2 -1.0 -22.0 -5.51 0.0 0.0 1.0
4569 2 -2.0 -21.0 -5.51 0.0 0.0 1.0
4570 2 -1.0 -21.0 -5.51 0.0 0.0 1.0
4629 2 -2.0 -20.0 -5.51 0.0 0.0 1.0
4630 2 -1.0 -20.0 -5.51 0.0 0.0 1.0
4661 2 -30.0 -19.0 -5.51 0.0 0.0 1.0
4662 2 -29.0 -19.0 -5.51 0.0 0.0 1.0
4663 2 -28.0 -19.0 -5.51 0.0 0.0 1.0
4721 2 -30.0 -18.0 -5.51 0.0 0.0 1.0
4722 2 -29.0 -18.0 -5.51 0.0 0.0 1.0
4723 2 -28.0 -18.0 -5.51 0.0 0.0 1.0
4781 2 -30.0 -17.0 -5.51 0.0 0.0 1.0
4782 2 -29.0 -17.0 -5.51 0.0 0.0 1.0
4783 2 -28.0 -17.0 -5.51 0.0 0.0 1.0
4664 2 -27.0 -19.0 -5.51 0.0 0.0 1.0
4665 2 -26.0 -19.0 -5.51 0.0 0.0 1.0
4724 2 -27.0 -18.0 -5.51 0.0 0.0 1.0
4725 2 -26.0 -18.0 -5.51 0.0 0.0 1.0
4784 2 -27.0 -17.0 -5.51 0.0 0.0 1.0
4785 2 -26.0 -17.0 -5.51 0.0 0.0 1.0
4666 2 -25.0 -19.0 -5.51 0.0 0.0 1.0
4667 2 -24.0 -19.0 -5.51 0.0 0.0 1.0
4668 2 -23.0 -19.0 -5.51 0.0 0.0 1.0
4726 2 -25.0 -18.0 -5.51 0.0 0.0 1.0
4727 2 -24.0 -18.0 -5.51 0.0 0.0 1.0
4728 2 -23.0 -18.0 -5.51 0.0 0.0 1.0
4786 2 -25.0 -17.0 -5.51 0.0 0.0 1.0
4787 2 -24.0 -17.0 -5.51 0.0 0.0 1.0
4788 2 -23.0 -17.0 -5.51 0.0 0.0 1.0
4669 2 -22.0 -19.0 -5.51 0.0 0.0 1.0
4670 2 -21.0 -19.0 -5.51 0.0 0.0 1.0
4671 2 -20.0 -19.0 -5.51 0.0 0.0 1.0
4729 2 -22.0 -18.0 -5.51 0.0 0.0 1.0
4730 2 -21.0 -18.0 -5.51 0.0 0.0 1.0
4731 2 -20.0 -18.0 -5.51 0.0 0.0 1.0
4789 2 -22.0 -17.0 -5.51 0.0 0.0 1.0
4790 2 -21.0 -17.0 -5.51 0.0 0.0 1.0
4791 2 -20.0 -17.0 -5.51 0.0 0.0 1.0
4672 2 -19.0 -19.0 -5.51 0.0 0.0 1.0
4673 2 -18.0 -19.0 -5.51 0.0 0.0 1.0
4674 2 -17.0 -19.0 -5.51 0.0 0.0 1.0
4732 2 -19.0 -18.0 -5.51 0.0 0.0 1.0
4733 2 -18.0 -18.0 -5.51 0.0 0.0 1.0
4734 2 -17.0 -18.0 -5.51 0.0 0.0 1.0
4792 2 -19.0 -17.0 -5.51 0.0 0.0 1.0
4793 2 -18.0 -17.0 -5.51 0.0 0.0 1.0
4794 2 -17.0 -17.0 -5.51 0.0 0.0 1.0
4675 2 -16.0 -19.0 -5.51 0.0 0.0 1.0
4676 2 -15.0 -19.0 -5.51 0.0 0.0 1.0
4677 2 -14.0 -19.0 -5.51 0.0 0.0 1.0
4735 2 -16.0 -18.0 -5.51 0.0 0.0 1.0
4736 2 -15.0 -18.0 -5.51 0.0 0.0 1.0
4737 2 -14.0 -18.0 -5.51 0.0 0.0 1.0
4795 2 -16.0 -17.0 -5.51 0.0 0.0 1.0
4796 2 -15.0 -17.0 -5.51 0.0 0.0 1.0
4797 2 -14.0 -17.0 -5.51 0.0 0.0 1.0
4678 2 -13.0 -19.0 -5.51 0.0 0.0 1.0
4679 2 -12.0 -19.0 -5.51 0.0 0.0 1.0
4738 2 -13.0 -18.0 -5.51 0.0 0.0 1.0
4739 2 -12.0 -18.0 -5.51 0.0 0.0 1.0
4798 2 -13.0 -17.0 -5.51 0.0 0.0 1.0
4799 2 -12.0 -17.0 -5.51 0.0 0.0 1.0
4680 2 -11.0 -19.0 -5.51 0.0 0.0 1.0
4681 2 -10.0 -19.0 -5.51 0.0 0.0 1.0
4682 2 -9.0 -19.0 -5.51 0.0 0.0 1.0
4740 2 -11.0 -18.0 -5.51 0.0 0.0 1.0
4741 2 -10.0 -18.0 -5.51 0.0 0.0 1.0
4742 2 -9.0 -18.0 -5.51 0.0 0.0 1.0
4800 2 -11.0 -17.0 -5.51 0.0 0.0 1.0
4801 2 -10.0 -17.0 -5.51 0.0 0.0 1.0
4802 2 -9.0 -17.0 -5.51 0.0 0.0 1.0
4683 2 -8.0 -19.0 -5.51 0.0 0.0 1.0
4684 2 -7.0 -19.0 -5.51 0.0 0.0 1.0
4685 2 -6.0 -19.0 -5.51 0.0 0.0 1.0
4743 2 -8.0 -18.0 -5.51 0.0 0.0 1.0
4744 2 -7.0 -18.0 -5.51 0.0 0.0 1.0
4745 2 -6.0 -18.0 -5.51 0.0 0.0 1.0
4803 2 -8.0 -17.0 -5.51 0.0 0.0 1.0
4804 2 -7.0 -17.0 -5.51 0.0 0.0 1.0
4805 2 -6.0 -17.0 -5.51 0.0 0.0 1.0
4686 2 -5.0 -19.0 -5.51 0.0 0.0 1.0
4687 2 -4.0 -19.0 -5.51 0.0 0.0 1.0
4688 2 -3.0 -19.0 -5.51 0.0 0.0 1.0
4746 2 -5.0 -18.0 -5.51 0.0 0.0 1.0
4747 2 -4.0 -18.0 -5.51 0.0 0.0 1.0
4748 2 -3.0 -18.0 -5.51 0.0 0.0 1.0
4806 2 -5.0 -17.0 -5.51 0.0 0.0 1.0
4807 2 -4.0 -17.0 -5.51 0.0 0.0 1.0
4808 2 -3.0 -17.0 -5.51 0.0 0.0 1.0
4689 2 -2.0 -19.0 -5.51 0.0 0.0 1.0
4690 2 -1.0 -19.0 -5.51 0.0 0.0 1.0
4749 2 -2.0 -18.0 -5.51 0.0 0.0 1.0
4750 2 -1.0 -18.0 -5.51 0.0 0.0 1.0
4809 2 -2.0 -17.0 -5.51 0.0 0.0 1.0
4810 2 -1.0 -17.0 -5.51 0.0 0.0 1.0
4841 2 -30.0 -16.0 -5.51 0.0 0.0 1.0
4842 2 -29.0 -16.0 -5.51 0.0 0.0 1.0
4843 2 -28.0 -16.0 -5.51 0.0 0.0 1.0
4901 2 -30.0 -15.0 -5.51 0.0 0.0 1.0
4902 2 -29.0 -15.0 -5.51 0.0 0.0 1.0
4903 2 -28.0 -15.0 -5.51 0.0 0.0 1.0
4961 2 -30.0 -14.0 -5.51 0.0 0.0 1.0
4962 2 -29.0 -14.0 -5.51 0.0 0.0 1.0
4963 2 -28.0 -14.0 -5.51 0.0 0.0 1.0
4844 2 -27.0 -16.0 -5.51 0.0 0.0 1.0
4845 2 -26.0 -16.0 -5.51 0.0 0.0 1.0
4904 2 -27.0 -15.0 -5.51 0.0 0.0 1.0
4905 2 -26.0 -15.0 -5.51 0.0 0.0 1.0
4964 2 -27.0 -14.0 -5.51 0.0 0.0 1.0
4965 2 -26.0 -14.0 -5.51 0.0 0.0 1.0
4846 2 -25.0 -16.0 -5.51 0.0 0.0 1.0
4847 2 -24.0 -16.0 -5.51 0.0 0.0 1.0
4848 2 -23.0 -16.0 -5.51 0.0 0.0 1.0
4906 2 -25.0 -15.0 -5.51 0.0 0.0 1.0
4907 2 -24.0 -15.0 -5.51 0.0 0.0 1.0
4908 2 -23.0 -15.0 -5.51 0.0 0.0 1.0
4966 2 -25.0 -14.0 -5.51 0.0 0.0 1.0
4967 2 -24.0 -14.0 -5.51 0.0 0.0 1.0
4968 2 -23.0 -14.0 -5.51 0.0 0.0 1.0
4849 2 -22.0 -16.0 -5.51 0.0 0.0 1.0
4850 2 -21.0 -16.0 -5.51 0.0 0.0 1.0
4851 2 -20.0 -16.0 -5.51 0.0 0.0 1.0
4909 2 -22.0 -15.0 -5.51 0.0 0.0 1.0
4910 2 -21.0 -15.0 -5.51 0.0 0.0 1.0
4911 2 -20.0 -15.0 -5.51 0.0 0.0 1.0
4969 2 -22.0 -14.0 -5.51 0.0 0.0 1.0
4970 2 -21.0 -14.0 -5.51 0.0 0.0 1.0
4971 2 -20.0 -14.0 -5.51 0.0 0.0 1.0
4852 2 -19.0 -16.0 -5.51 0.0 0.0 1.0
4853 2 -18.0 -16.0 -5.51 0.0 0.0 1.0
4854 2 -17.0 -16.0 -5.51 0.0 0.0 1.0
4912 2 -19.0 -15.0 -5.51 0.0 0.0 1.0
4913 2 -18.0 -15.0 -5.51 0.0 0.0 1.0
4914 2 -17.0 -15.0 -5.51 0.0 0.0 1.0
4972 2 -19.0 -14.0 -5.51 0.0 0.0 1.0
4973 2 -18.0 -14.0 -5.51 0.0 0.0 1.0
4974 2 -17.0 -14.0 -5.51 0.0 0.0 1.0
4855 2 -16.0 -16.0 -5.51 0.0 0.0 1.0
4856 2 -15.0 -16.0 -5.51 0.0 0.0 1.0
4857 2 -14.0 -16.0 -5.51 0.0 0.0 1.0
4915 2 -16.0 -15.0 -5.51 0.0 0.0 1.0
4916 2 -15.0 -15.0 -5.51 0.0 0.0 1.0
4917 2 -14.0 -15.0 -5.51 0.0 0.0 1.0
4975 2 -16.0 -14.0 -5.51 0.0 0.0 1.0
4976 2 -15.0 -14.0 -5.51 0.0 0.0 1.0
4977 2 -14.0 -14.0 -5.51 0.0 0.0 1.0
4858 2 -13.0 -16.0 -5.51 0.0 0.0 1.0
4859 2 -12.0 -16.0 -5.51 0.0 0.0 1.0
4918 2 -13.0 -15.0 -5.51 0.0 0.0 1.0
4919 2 -12.0 -15.0 -5.51 0.0 0.0 1.0
4978 2 -13.0 -14.0 -5.51 0.0 0.0 1.0
4979 2 -12.0 -14.0 -5.51 0.0 0.0 1.0
4860 2 -11.0 -16.0 -5.51 0.0 0.0 1.0
4861 2 -10.0 -16.0 -5.51 0.0 0.0 1.0
4862 2 -9.0 -16.0 -5.51 0.0 0.0 1.0
4920 2 -11.0 -15.0 -5.51 0.0 0.0 1.0
4921 2 -10.0 -15.0 -5.51 0.0 0.0 1.0
4922 2 -9.0 -15.0 -5.51 0.0 0.0 1.0
4980 2 -11.0 -14.0 -5.51 0.0 0.0 1.0
4981 2 -10.0 -14.0 -5.51 0.0 0.0 1.0
4982 2 -9.0 -14.0 -5.51 0.0 0.0 1.0
4863 2 -8.0 -16.0 -5.51 0.0 0.0 1.0
4864 2 -7.0 -16.0 -5.51 0.0 0.0 1.0
4865 2 -6.0 -16.0 -5.51 0.0 0.0 1.0
4923 2 -8.0 -15.0 -5.51 0.0 0.0 1.0
4924 2 -7.0 -15.0 -5.51 0.0 0.0 1.0
4925 2 -6.0 -15.0 -5.51 0.0 0.0 1.0
4983 2 -8.0 -14.0 -5.51 0.0 0.0 1.0
4984 2 -7.0 -14.0 -5.51 0.0 0.0 1.0
4985 2 -6.0 -14.0 -5.51 0.0 0.0 1.0
4866 2 -5.0 -16.0 -5.51 0.0 0.0 1.0
4867 2 -4.0 -16.0 -5.51 0.0 0.0 1.0
4868 2 -3.0 -16.0 -5.51 0.0 0.0 1.0
4926 2 -5.0 -15.0 -5.51 0.0 0.0 1.0
4927 2 -4.0 -15.0 -5.51 0.0 0.0 1.0
4928 2 -3.0 -15.0 -5.51 0.0 0.0 1.0
4986 2 -5.0 -14.0 -5.51 0.0 0.0 1.0
4987 2 -4.0 -14.0 -5.51 0.0 0.0 1.0
4988 2 -3.0 -14.0 -5.51 0.0 0.0 1.0
4869 2 -2.0 -16.0 -5.51 0.0 0.0 1.0
4870 2 -1.0 -16.0 -5.51 0.0 0.0 1.0
4929 2 -2.0 -15.0 -5.51 0.0 0.0 1.0
4930 2 -1.0 -15.0 -5.51 0.0 0.0 1.0
4989 2 -2.0 -14.0 -5.51 0.0 0.0 1.0
4990 2 -1.0 -14.0 -5.51 0.0 0.0 1.0
5021 2 -30.0 -13.0 -5.51 0.0 0.0 1.0
5022 2 -29.0 -13.0 -5.51 0.0 0.0 1.0
5023 2 -28.0 -13.0 -5.51 0.0 0.0 1.0
5081 2 -30.0 -12.0 -5.51 0.0 0.0 1.0
5082 2 -29.0 -12.0 -5.51 0.0 0.0 1.0
5083 2 -28.0 -12.0 -5.51 0.0 0.0 1.0
5024 2 -27.0 -13.0 -5.51 0.0 0.0 1.0
5025 2 -26.0 -13.0 -5.51 0.0 0.0 1.0
5084 2 -27.0 -12.0 -5.51 0.0 0.0 1.0
5085 2 -26.0 -12.0 -5.51 0.0 0.0 1.0
5026 2 -25.0 -13.0 -5.51 0.0 0.0 1.0
5027 2 -24.0 -13.0 -5.51 0.0 0.0 1.0
5028 2 -23.0 -13.0 -5.51 0.0 0.0 1.0
5086 2 -25.0 -12.0 -5.51 0.0 0.0 1.0
5087 2 -24.0 -12.0 -5.51 0.0 0.0 1.0
5088 2 -23.0 -12.0 -5.51 0.0 0.0 1.0
5029 2 -22.0 -13.0 -5.51 0.0 0.0 1.0
5030 2 -21.0 -13.0 -5.51 0.0 0.0 1.0
5031 2 -20.0 -13.0 -5.51 0.0 0.0 1.0
5089 2 -22.0 -12.0 -5.51 0.0 0.0 1.0
5090 2 -21.0 -12.0 -5.51 0.0 0.0 1.0
5091 2 -20.0 -12.0 -5.51 0.0 0.0 1.0
5032 2 -19.0 -13.0 -5.51 0.0 0.0 1.0
5033 2 -18.0 -13.0 -5.51 0.0 0.0 1.0
5034 2 -17.0 -13.0 -5.51 0.0 0.0 1.0
5092 2 -19.0 -12.0 -5.51 0.0 0.0 1.0
5093 2 -18.0 -12.0 -5.51 0.0 0.0 1.0
5094 2 -17.0 -12.0 -5.51 0.0 0.0 1.0
5035 2 -16.0 -13.0 -5.51 0.0 0.0 1.0
5036 2 -15.0 -13.0 -5.51 0.0 0.0 1.0
5037 2 -14.0 -13.0 -5.51 0.0 0.0 1.0
5095 2 -16.0 -12.0 -5.51 0.0 0.0 1.0
5096 2 -15.0 -12.0 -5.51 0.0 0.0 1.0
5097 2 -14.0 -12.0 -5.51 0.0 0.0 1.0
5038 2 -13.0 -13.0 -5.51 0.0 0.0 1.0
5039 2 -12.0 -13.0 -5.51 0.0 0.0 1.0
5098 2 -13.0 -12.0 -5.51 0.0 0.0 1.0
5099 2 -12.0 -12.0 -5.51 0.0 0.0 1.0
5040 2 -11.0 -13.0 -5.51 0.0 0.0 1.0
5041 2 -10.0 -13.0 -5.51 0.0 0.0 1.0
5042 2 -9.0 -13.0 -5.51 0.0 0.0 1.0
5100 2 -11.0 -12.0 -5.51 0.0 0.0 1.0
5101 2 -10.0 -12.0 -5.51 0.0 0.0 1.0
5102 2 -9.0 -12.0 -5.51 0.0 0.0 1.0
5043 2 -8.0 -13.0 -5.51 0.0 0.0 1.0
5044 2 -7.0 -13.0 -5.51 0.0 0.0 1.0
5045 2 -6.0 -13.0 -5.51 0.0 0.0 1.0
5103 2 -8.0 -12.0 -5.51 0.0 0.0 1.0
5104 2 -7.0 -12.0 -5.51 0.0 0.0 1.0
5105 2 -6.0 -12.0 -5.51 0.0 0.0 1.0
5046 2 -5.0 -13.0 -5.51 0.0 0.0 1.0
5047 2 -4.0 -13.0 -5.51 0.0 0.0 1.0
5048 2 -3.0 -13.0 -5.51 0.0 0.0 1.0
5106 2 -5.0 -12.0 -5.51 0.0 0.0 1.0
5107 2 -4.0 -12.0 -5.51 0.0 0.0 1.0
5108 2 -3.0 -12.0 -5.51 0.0 0.0 1.0
5049 2 -2.0 -13.0 -5.51 0.0 0.0 1.0
5050 2 -1.0 -13.0 -5.51 0.0 0.0 1.0
5109 2 -2.0 -12.0 -5.51 0.0 0.0 1.0
5110 2 -1.0 -12.0 -5.51 0.0 0.0 1.0
5141 2 -30.0 -11.0 -5.51 0.0 0.0 1.0
5142 2 -29.0 -11.0 -5.51 0.0 0.0 1.0
5143 2 -28.0 -11.0 -5.51 0.0 0.0 1.0
5201 2 -30.0 -10.0 -5.51 0.0 0.0 1.0
5202 2 -29.0 -10.0 -5.51 0.0 0.0 1.0
5203 2 -28.0 -10.0 -5.51 0.0 0.0 1.0
5261 2 -30.0 -9.0 -5.51 0.0 0.0 1.0
5262 2 -29.0 -9.0 -5.51 0.0 0.0 1.0
5263 2 -28.0 -9.0 -5.51 0.0 0.0 1.0
5144 2 -27.0 -11.0 -5.51 0.0 0.0 1.0
5145 2 -26.0 -11.0 -5.51 0.0 0.0 1.0
5204 2 -27.0 -10.0 -5.51 0.0 0.0 1.0
5205 2 -26.0 -10.0 -5.51 0.0 0.0 1.0
5264 2 -27.0 -9.0 -5.51 0.0 0.0 1.0
5265 2 -26.0 -9.0 -5.51 0.0 0.0 1.0
5146 2 -25.0 -11.0 -5.51 0.0 0.0 1.0
5147 2 -24.0 -11.0 -5.51 0.0 0.0 1.0
5148 2 -23.0 -11.0 -5.51 0.0 0.0 1.0
5206 2 -25.0 -10.0 -5.51 0.0 0.0 1.0
5207 2 -24.0 -10.0 -5.51 0.0 0.0 1.0
5208 2 -23.0 -10.0 -5.51 0.0 0.0 1.0
5266 2 -25.0 -9.0 -5.51 0.0 0.0 1.0
5267 2 -24.0 -9.0 -5.51 0.0 0.0 1.0
5268 2 -23.0 -9.0 -5.51 0.0 0.0 1.0
5149 2 -22.0 -11.0 -5.51 0.0 0.0 1.0
5150 2 -21.0 -11.0 -5.51 0.0 0.0 1.0
5151 2 -20.0 -11.0 -5.51 0.0 0.0 1.0
5209 2 -22.0 -10.0 -5.51 0.0 0.0 1.0
5210 2 -21.0 -10.0 -5.51 0.0 0.0 1.0
5211 2 -20.0 -10.0 -5.51 0.0 0.0 1.0
5269 2 -22.0 -9.0 -5.51 0.0 0.0 1.0
5270 2 -21.0 -9.0 -5.51 0.0 0.0 1.0
5271 2 -20.0 -9.0 -5.51 0.0 0.0 1.0
5152 2 -19.0 -11.0 -5.51 0.0 0.0 1.0
5153 2 -18.0 -11.0 -5.51 0.0 0.0 1.0
5154 2 -17.0 -11.0 -5.51 0.0 0.0 1.0
5212 2 -19.0 -10.0 -5.51 0.0 0.0 1.0
5213 2 -18.0 -10.0 -5.51 0.0 0.0 1.0
5214 2 -17.0 -10.0 -5.51 0.0 0.0 1.0
5272 2 -19.0 -9.0 -5.51 0.0 0.0 1.0
5273 2 -18.0 -9.0 -5.51 0.0 0.0 1.0
5274 2 -17.0 -9.0 -5.51 0.0 0.0 1.0
5155 2 -16.0 -11.0 -5.51 0.0 0.0 1.0
5156 2 -15.0 -11.0 -5.51 0.0 0.0 1.0
5157 2 -14.0 -11.0 -5.51 0.0 0.0 1.0
5215 2 -16.0 -10.0 -5.51 0.0 0.0 1.0
5216 2 -15.0 -10.0 -5.51 0.0 0.0 1.0
5217 2 -14.0 -10.0 -5.51 0.0 0.0 1.0
5275 2 -16.0 -9.0 -5.51 0.0 0.0 1.0
5276 2 -15.0 -9.0 -5.51 0.0 0.0 1.0
5277 2 -14.0 -9.0 -5.51 0.0 0.0 1.0
5158 2 -13.0 -11.0 -5.51 0.0 0.0 1.0
5159 2 -12.0 -11.0 -5.51 0.0 0.0 1.0
5218 2 -13.0 -10.0 -5.51 0.0 0.0 1.0
5219 2 -12.0 -10.0 -5.51 0.0 0.0 1.0
5278 2 -13.0 -9.0 -5.51 0.0 0.0 1.0
5279 2 -12.0 -9.0 -5.51 0.0 0.0 1.0
5160 2 -11.0 -11.0 -5.51 0.0 0.0 1.0
5161 2 -10.0 -11.0 -5.51 0.0 0.0 1.0
5162 2 -9.0 -11.0 -5.51 0.0 0.0 1.0
5220 2 -11.0 -10.0 -5.51 0.0 0.0 1.0
5221 2 -10.0 -10.0 -5.51 0.0 0.0 1.0
5222 2 -9.0 -10.0 -5.51 0.0 0.0 1.0
5280 2 -11.0 -9.0 -5.51 0.0 0.0 1.0
5281 2 -10.0 -9.0 -5.51 0.0 0.0 1.0
5282 2 -9.0 -9.0 -5.51 0.0 0.0 1.0
5163 2 -8.0 -11.0 -5.51 0.0 0.0 1.0
5164 2 -7.0 -11.0 -5.51 0.0 0.0 1.0
5165 2 -6.0 -11.0 -5.51 0.0 0.0 1.0
5223 2 -8.0 -10.0 -5.51 0.0 0.0 1.0
5224 2 -7.0 -10.0 -5.51 0.0 0.0 1.0
5225 2 -6.0 -10.0 -5.51 0.0 0.0 1.0
5283 2 -8.0 -9.0 -5.51 0.0 0.0 1.0
5284 2 -7.0 -9.0 -5.51 0.0 0.0 1.0
5285 2 -6.0 -9.0 -5.51 0.0 0.0 1.0
5166 2 -5.0 -11.0 -5.51 0.0 0.0 1.0
5167 2 -4.0 -11.0 -5.51 0.0 0.0 1.0
5168 2 -3.0 -11.0 -5.51 0.0 0.0 1.0
5226 2 -5.0 -10.0 -5.51 0.0 0.0 1.0
5227 2 -4.0 -10.0 -5.51 0.0 0.0 1.0
5228 2 -3.0 -10.0 -5.51 0.0 0.0 1.0
5286 2 -5.0 -9.0 -5.51 0.0 0.0 1.0
5287 2 -4.0 -9.0 -5.51 0.0 0.0 1.0
5288 2 -3.0 -9.0 -5.51 0.0 0.0 1.0
3296 1 -4.66818 -8.43326 -2.86023 0.0 0.0 1.0
2817 1 -3.55672 -8.35982 -3.36382 0.0 0.0 1.0
5169 2 -2.0 -11.0 -5.51 0.0 0.0 1.0
5170 2 -1.0 -11.0 -5.51 0.0 0.0 1.0
5229 2 -2.0 -10.0 -5.51 0.0 0.0 1.0
5230 2 -1.0 -10.0 -5.51 0.0 0.0 1.0
5289 2 -2.0 -9.0 -5.51 0.0 0.0 1.0
5290 2 -1.0 -9.0 -5.51 0.0 0.0 1.0
1088 1 -1.2042 -9.20712 -3.69522 0.0 0.0 1.0
3563 1 -1.8618 -8.85102 -2.85496 0.0 0.0 1.0
2369 1 -0.104564 -8.57537 -4.28323 0.0 0.0 1.0
1976 1 -2.08059 -8.59155 -3.92269 0.0 0.0 1.0
540 1 -2.66715 -8.45538 -3.08541 0.0 0.0 1.0
3291 1 -0.677779 -8.98001 -2.9253 0.0 0.0 1.0
5321 2 -30.0 -8.0 -5.51 0.0 0.0 1.0
5322 2 -29.0 -8.0 -5.51 0.0 0.0 1.0
5323 2 -28.0 -8.0 -5.51 0.0 0.0 1.0
5381 2 -30.0 -7.0 -5.51 0.0 0.0 1.0
5382 2 -29.0 -7.0 -5.51 0.0 0.0 1.0
5383 2 -28.0 -7.0 -5.51 0.0 0.0 1.0
5441 2 -30.0 -6.0 -5.51 0.0 0.0 1.0
5442 2 -29.0 -6.0 -5.51 0.0 0.0 1.0
5443 2 -28.0 -6.0 -5.51 0.0 0.0 1.0
5324 2 -27.0 -8.0 -5.51 0.0 0.0 1.0
5325 2 -26.0 -8.0 -5.51 0.0 0.0 1.0
5384 2 -27.0 -7.0 -5.51 0.0 0.0 1.0
5385 2 -26.0 -7.0 -5.51 0.0 0.0 1.0
5444 2 -27.0 -6.0 -5.51 0.0 0.0 1.0
5445 2 -26.0 -6.0 -5.51 0.0 0.0 1.0
5326 2 -25.0 -8.0 -5.51 0.0 0.0 1.0
5327 2 -24.0 -8.0 -5.51 0.0 0.0 1.0
5328 2 -23.0 -8.0 -5.51 0.0 0.0 1.0
5386 2 -25.0 -7.0 -5.51 0.0 0.0 1.0
5387 2 -24.0 -7.0 -5.51 0.0 0.0 1.0
5388 2 -23.0 -7.0 -5.51 0.0 0.0 1.0
5446 2 -25.0 -6.0 -5.51 0.0 0.0 1.0
5447 2 -24.0 -6.0 -5.51 0.0 0.0 1.0
5448 2 -23.0 -6.0 -5.51 0.0 0.0 1.0
5329 2 -22.0 -8.0 -5.51 0.0 0.0 1.0
5330 2 -21.0 -8.0 -5.51 0.0 0.0 1.0
5331 2 -20.0 -8.0 -5.51 0.0 0.0 1.0
5389 2 -22.0 -7.0 -5.51 0.0 0.0 1.0
5390 2 -21.0 -7.0 -5.51 0.0 0.0 1.0
5391 2 -20.0 -7.0 -5.51 0.0 0.0 1.0
5449 2 -22.0 -6.0 -5.51 0.0 0.0 1.0
5450 2 -21.0 -6.0 -5.51 0.0 0.0 1.0
5451 2 -20.0 -6.0 -5.51 0.0 0.0 1.0
5332 2 -19.0 -8.0 -5.51 0.0 0.0 1.0
5333 2 -18.0 -8.0 -5.51 0.0 0.0 1.0
5334 2 -17.0 -8.0 -5.51 0.0 0.0 1.0
5392 2 -19.0 -7.0 -5.51 0.0 0.0 1.0
5393 2 -18.0 -7.0 -5.51 0.0 0.0 1.0
5394 2 -17.0 -7.0 -5.51 0.0 0.0 1.0
5452 2 -19.0 -6.0 -5.51 0.0 0.0 1.0
5453 2 -18.0 -6.0 -5.51 0.0 0.0 1.0
5454 2 -17.0 -6.0 -5.51 0.0 0.0 1.0
5335 2 -16.0 -8.0 -5.51 0.0 0.0 1.0
5336 2 -15.0 -8.0 -5.51 0.0 0.0 1.0
5337 2 -14.0 -8.0 -5.51 0.0 0.0 1.0
5395 2 -16.0 -7.0 -5.51 0.0 0.0 1.0
5396 2 -15.0 -7.0 -5.51 0.0 0.0 1.0
5397 2 -14.0 -7.0 -5.51 0.0 0.0 1.0
5455 2 -16.0 -6.0 -5.51 0.0 0.0 1.0
5456 2 -15.0 -6.0 -5.51 0.0 0.0 1.0
5457 2 -14.0 -6.0 -5.51 0.0 0.0 1.0
5338 2 -13.0 -8.0 -5.51 0.0 0.0 1.0
5339 2 -12.0 -8.0 -5.51 0.0 0.0 1.0
5398 2 -13.0 -7.0 -5.51 0.0 0.0 1.0
5399 2 -12.0 -7.0 -5.51 0.0 0.0 1.0
5458 2 -13.0 -6.0 -5.51 0.0 0.0 1.0
5459 2 -12.0 -6.0 -5.51 0.0 0.0 1.0
5340 2 -11.0 -8.0 -5.51 0.0 0.0 1.0
5341 2 -10.0 -8.0 -5.51 0.0 0.0 1.0
5342 2 -9.0 -8.0 -5.51 0.0 0.0 1.0
5400 2 -11.0 -7.0 -5.51 0.0 0.0 1.0
5401 2 -10.0 -7.0 -5.51 0.0 0.0 1.0
5402 2 -9.0 -7.0 -5.51 0.0 0.0 1.0
5460 2 -11.0 -6.0 -5.51 0.0 0.0 1.0
5461 2 -10.0 -6.0 -5.51 0.0 0.0 1.0
5462 2 -9.0 -6.0 -5.51 0.0 0.0 1.0
5343 2 -8.0 -8.0 -5.51 0.0 0.0 1.0
5344 2 -7.0 -8.0 -5.51 0.0 0.0 1.0
5345 2 -6.0 -8.0 -5.51 0.0 0.0 1.0
5403 2 -8.0 -7.0 -5.51 0.0 0.0 1.0
5404 2 -7.0 -7.0 -5.51 0.0 0.0 1.0
5405 2 -6.0 -7.0 -5.51 0.0 0.0 1.0
5463 2 -8.0 -6.0 -5.51 0.0 0.0 1.0
5464 2 -7.0 -6.0 -5.51 0.0 0.0 1.0
5465 2 -6.0 -6.0 -5.51 0.0 0.0 1.0
2758 1 -6.89392 -6.54931 -3.23819 0.0 0.0 1.0
463 1 -6.6821 -5.80947 -3.99631 0.0 0.0 1.0
2253 1 -5.93441 -5.90336 -3.39938 0.0 0.0 1.0
1696 1 -5.62458 -6.69358 -2.99811 0.0 0.0 1.0
343 1 -5.86614 -6.52496 -4.12982 0.0 0.0 1.0
2213 1 -6.32572 -7.41842 -3.11414 0.0 0.0 1.0
5346 2 -5.0 -8.0 -5.51 0.0 0.0 1.0
5347 2 -4.0 -8.0 -5.51 0.0 0.0 1.0
5348 2 -3.0 -8.0 -5.51 0.0 0.0 1.0
5406 2 -5.0 -7.0 -5.51 0.0 0.0 1.0
5407 2 -4.0 -7.0 -5.51 0.0 0.0 1.0
5408 2 -3.0 -7.0 -5.51 0.0 0.0 1.0
5466 2 -5.0 -6.0 -5.51 0.0 0.0 1.0
5467 2 -4.0 -6.0 -5.51 0.0 0.0 1.0
5468 2 -3.0 -6.0 -5.51 0.0 0.0 1.0
3701 1 -3.06735 -6.51571 -3.59187 0.0 0.0 1.0
3789 1 -4.47755 -6.22551 -3.89072 0.0 0.0 1.0
3171 1 -5.12188 -7.09393 -3.64901 0.0 0.0 1.0
1461 1 -3.64927 -5.7413 -3.90585 0.0 0.0 1.0
2824 1 -3.07068 -6.10046 -4.51549 0.0 0.0 1.0
2876 1 -4.22293 -7.66788 -3.20216 0.0 0.0 1.0
2892 1 -4.00333 -6.77255 -3.28225 0.0 0.0 1.0
117 1 -3.32727 -7.03786 -4.30717 0.0 0.0 1.0
2641 1 -3.61037 -5.94893 -3.0116 0.0 0.0 1.0
3777 1 -3.29257 -7.43951 -3.35685 0.0 0.0 1.0
726 1 -2.7975 -5.57193 -3.49716 0.0 0.0 1.0
2079 1 -1.07042 -8.31788 -4.18188 0.0 0.0 1.0
3595 1 -2.39608 -7.07347 -3.18507 0.0 0.0 1.0
372 1 -2.36532 -7.24804 -4.10424 0.0 0.0 1.0
1076 1 -2.07088 -6.15504 -3.49013 0.0 0.0 1.0
2220 1 -0.528362 -8.06769 -3.43121 0.0 0.0 1.0
5349 2 -2.0 -8.0 -5.51 0.0 0.0 1.0
5350 2 -1.0 -8.0 -5.51 0.0 0.0 1.0
5409 2 -2.0 -7.0 -5.51 0.0 0.0 1.0
5410 2 -1.0 -7.0 -5.51 0.0 0.0 1.0
5469 2 -2.0 -6.0 -5.51 0.0 0.0 1.0
5470 2 -1.0 -6.0 -5.51 0.0 0.0 1.0
1078 1 -0.707133 -7.17224 -3.51166 0.0 0.0 1.0
181 1 -1.21189 -6.6523 -4.61951 0.0 0.0 1.0
436 1 -1.48897 -7.49338 -4.3283 0.0 0.0 1.0
2434 1 -0.285957 -7.64739 -4.21842 0.0 0.0 1.0