LAMMPS data file from restart file: timestep = 0, procs = 1

1327 atoms

1 atom types

-5.50000000000e+00 5.50000000000e+00 xlo xhi
-5.50000000000e+00 5.50000000000e+00 ylo yhi
-5.50000000000e+00 5.50000000000e+00 zlo zhi

Masses

1 1.0

Atoms

1 1 -4.74076 -3.95357 -3.38638 0.0 0.0 1.0
2 1 -3.14087 -3.44491 -4.98405 0.0 0.0 1.0
3 1 -4.44462 -2.60892 -4.99346 0.0 0.0 1.0
4 1 -3.11721 -4.72629 -2.87414 0.0 0.0 1.0
5 1 -3.31962 -3.53162 -3.00485 0.0 0.0 1.0
6 1 -3.96789 -3.61188 -3.90081 0.0 0.0 1.0
7 1 -3.27302 -4.31316 -3.97395 0.0 0.0 1.0
8 1 -3.88221 -2.74758 -3.37734 0.0 0.0 1.0
9 1 -4.63975 -2.93287 -3.9392 0.0 0.0 1.0
10 1 -3.08749 -3.36807 -3.8564 0.0 0.0 1.0
11 1 -4.73105 -3.11904 -2.86313 0.0 0.0 1.0
12 1 -2.519 -3.88394 -4.37314 0.0 0.0 1.0
13 1 -3.20182 -2.66136 -4.42192 0.0 0.0 1.0
14 1 -2.36902 -4.05368 -3.45323 0.0 0.0 1.0
15 1 -2.44287 -3.13945 -3.11079 0.0 0.0 1.0
16 1 -0.722803 -3.27919 -4.2466 0.0 0.0 1.0
17 1 -1.02034 -4.60802 -4.64781 0.0 0.0 1.0
18 1 -2.34426 -3.03972 -4.68728 0.0 0.0 1.0
19 1 -2.1541 -4.66117 -2.79008 0.0 0.0 1.0
20 1 -1.55746 -3.41741 -2.88621 0.0 0.0 1.0
21 1 -1.72208 -4.33065 -4.06116 0.0 0.0 1.0
22 1 -1.02337 -3.78353 -3.53312 0.0 0.0 1.0
23 1 -1.74659 -3.97827 -4.9297 0.0 0.0 1.0
24 1 -1.51885 -2.80769 -4.38255 0.0 0.0 1.0
25 1 -1.79001 -3.39343 -3.78351 0.0 0.0 1.0
26 1 -0.488638 -3.68133 -2.79807 0.0 0.0 1.0
27 1 -1.25541 -4.56307 -3.1055 0.0 0.0 1.0
28 1 -0.690543 -2.86755 -3.25247 0.0 0.0 1.0
29 1 -0.661173 -4.58008 -3.82017 0.0 0.0 1.0
30 1 -0.0323063 -2.78401 -3.84923 0.0 0.0 1.0
31 1 -2.35083 -2.60963 -3.86623 0.0 0.0 1.0
32 1 -1.61091 -2.60394 -3.29426 0.0 0.0 1.0
33 1 -0.117296 -3.77113 -3.72339 0.0 0.0 1.0
34 1 -0.0117885 -3.24168 -4.85512 0.0 0.0 1.0
35 1 -2.59871 -2.13597 -4.85514 0.0 0.0 1.0
36 1 -4.91428 -0.625931 -3.71407 0.0 0.0 1.0
37 1 -4.99699 -2.12613 -4.15024 0.0 0.0 1.0
38 1 -4.96497 -1.17931 -2.98701 0.0 0.0 1.0
39 1 -3.29964 -1.26151 -4.73804 0.0 0.0 1.0
40 1 -3.97208 -2.15618 -4.16965 0.0 0.0 1.0
41 1 -4.42597 -0.181705 -4.4319 0.0 0.0 1.0
42 1 -2.80534 -0.556432 -4.43848 0.0 0.0 1.0
43 1 -3.18181 -2.24259 -3.61741 0.0 0.0 1.0
44 1 -4.62944 -1.64895 -4.85912 0.0 0.0 1.0
45 1 -3.99506 -0.56065 -3.36158 0.0 0.0 1.0
46 1 -4.36771 -1.69006 -3.48366 0.0 0.0 1.0
47 1 -4.07333 -1.11317 -4.1356 0.0 0.0 1.0
48 1 -3.20914 -2.40384 -2.71115 0.0 0.0 1.0
49 1 -3.4874 -1.44563 -3.35917 0.0 0.0 1.0
50 1 -3.55712 -0.343185 -4.92634 0.0 0.0 1.0
51 1 -3.24102 -0.82011 -2.7188 0.0 0.0 1.0
52 1 -4.47157 -2.28149 -2.80185 0.0 0.0 1.0
53 1 -3.11725 -0.637172 -3.60778 0.0 0.0 1.0
54 1 -2.57166 -1.72905 -4.05819 0.0 0.0 1.0
55 1 -4.61955 -0.295425 -2.74184 0.0 0.0 1.0
56 1 -4.17359 -1.05384 -2.58445 0.0 0.0 1.0
57 1 -3.61076 -0.0370912 -4.03973 0.0 0.0 1.0
58 1 -2.472 -1.1872 -3.32991 0.0 0.0 1.0
59 1 -2.3132 -0.530223 -2.67661 0.0 0.0 1.0
60 1 -0.953278 -0.654998 -4.7969 0.0 0.0 1.0
61 1 -0.418067 -2.36947 -4.63498 0.0 0.0 1.0
62 1 -2.46546 -2.03508 -3.12165 0.0 0.0 1.0
63 1 -0.100285 -2.19822 -2.95062 0.0 0.0 1.0
64 1 -0.231349 -0.479114 -4.03907 0.0 0.0 1.0
65 1 -0.979055 -2.25885 -3.90292 0.0 0.0 1.0
66 1 -0.79213 -1.46285 -4.38133 0.0 0.0 1.0
67 1 -1.76285 -1.93737 -4.50916 0.0 0.0 1.0
68 1 -2.17999 -0.488159 -3.74313 0.0 0.0 1.0
69 1 -0.122158 -1.78547 -3.78795 0.0 0.0 1.0
70 1 -1.64697 -1.05412 -4.28709 0.0 0.0 1.0
71 1 -0.710508 -1.09067 -3.52299 0.0 0.0 1.0
72 1 -0.676688 -0.307202 -3.04378 0.0 0.0 1.0
73 1 -2.3222 -1.19579 -4.91561 0.0 0.0 1.0
74 1 -0.96979 -1.83818 -3.07535 0.0 0.0 1.0
75 1 -0.897446 -1.08676 -2.50352 0.0 0.0 1.0
76 1 -1.736 -1.74805 -3.61465 0.0 0.0 1.0
77 1 -1.58916 -0.861998 -3.07391 0.0 0.0 1.0
78 1 -1.24532 -0.316401 -3.84395 0.0 0.0 1.0
79 1 -1.73114 -1.66906 -2.59863 0.0 0.0 1.0
80 1 -0.0310906 -1.33416 -2.66686 0.0 0.0 1.0
81 1 -3.86406 -3.05522 -2.45471 0.0 0.0 1.0
82 1 -3.672 -4.72784 -0.0852656 0.0 0.0 1.0
83 1 -3.64484 -3.94357 -2.22329 0.0 0.0 1.0
84 1 -4.25146 -4.80596 -2.01686 0.0 0.0 1.0
85 1 -3.15634 -4.53556 -0.86303 0.0 0.0 1.0
86 1 -3.80941 -4.27051 -1.40819 0.0 0.0 1.0
87 1 -4.99075 -2.84967 -0.887661 0.0 0.0 1.0
88 1 -4.43972 -4.62065 -0.861858 0.0 0.0 1.0
89 1 -4.5345 -4.00361 -2.46251 0.0 0.0 1.0
90 1 -4.41343 -3.62422 -1.50533 0.0 0.0 1.0
91 1 -4.5856 -2.73916 -1.96349 0.0 0.0 1.0
92 1 -3.00032 -3.74964 -1.57915 0.0 0.0 1.0
93 1 -3.67041 -3.21517 -1.16004 0.0 0.0 1.0
94 1 -3.29842 -4.83248 -1.9884 0.0 0.0 1.0
95 1 -3.86644 -2.7169 -0.396725 0.0 0.0 1.0
96 1 -2.72019 -4.01817 -2.42137 0.0 0.0 1.0
97 1 -2.52084 -2.93163 -1.23657 0.0 0.0 1.0
98 1 -3.13386 -3.2338 -0.25042 0.0 0.0 1.0
99 1 -4.88946 -3.73167 -0.676282 0.0 0.0 1.0
100 1 -3.84484 -3.89919 -0.568896 0.0 0.0 1.0
101 1 -3.12113 -2.92582 -1.95503 0.0 0.0 1.0
102 1 -4.86207 -4.9074 -0.0524072 0.0 0.0 1.0
103 1 -4.59447 -3.10839 -0.0422621 0.0 0.0 1.0
104 1 -2.46695 -3.84109 -0.853889 0.0 0.0 1.0
105 1 -2.45506 -4.73608 -0.318572 0.0 0.0 1.0
106 1 -0.647655 -4.48127 -2.38615 0.0 0.0 1.0
107 1 -0.328494 -2.88335 -2.38398 0.0 0.0 1.0
108 1 -0.672168 -3.92087 -0.925447 0.0 0.0 1.0
109 1 -2.47397 -4.54144 -1.50427 0.0 0.0 1.0
110 1 -0.763654 -3.03029 -0.677845 0.0 0.0 1.0
111 1 -0.17428 -4.34661 -1.58832 0.0 0.0 1.0
112 1 -1.79026 -3.79165 -1.54025 0.0 0.0 1.0
113 1 -0.498863 -3.50008 -1.73427 0.0 0.0 1.0
114 1 -1.75423 -4.5171 -0.937933 0.0 0.0 1.0
115 1 -1.07809 -4.43457 -1.54149 0.0 0.0 1.0
116 1 -1.59515 -2.87019 -1.22208 0.0 0.0 1.0
117 1 -0.424098 -4.80642 -0.74901 0.0 0.0 1.0
118 1 -1.24349 -3.0972 -2.08777 0.0 0.0 1.0
119 1 -1.52076 -4.14641 -2.32714 0.0 0.0 1.0
120 1 -1.53483 -3.63927 -0.678734 0.0 0.0 1.0
121 1 -2.11593 -3.93502 -0.015136 0.0 0.0 1.0
122 1 -2.18384 -3.05683 -0.338486 0.0 0.0 1.0
123 1 -2.2117 -3.32694 -2.18589 0.0 0.0 1.0
124 1 -1.14528 -4.44857 -0.265703 0.0 0.0 1.0
125 1 -0.171417 -3.6156 -0.222137 0.0 0.0 1.0
126 1 -2.00016 -2.52179 -2.47957 0.0 0.0 1.0
127 1 -3.76834 -2.36414 -1.60137 0.0 0.0 1.0
128 1 -4.97642 -0.927622 -2.11549 0.0 0.0 1.0
129 1 -2.585 -1.40604 -2.44752 0.0 0.0 1.0
130 1 -2.85144 -0.467225 -1.9468 0.0 0.0 1.0
131 1 -3.19099 -2.36755 -0.928575 0.0 0.0 1.0
132 1 -3.01247 -0.0810467 -1.13868 0.0 0.0 1.0
133 1 -4.55822 -2.1346 -1.26011 0.0 0.0 1.0
134 1 -4.22761 -1.27476 -1.68418 0.0 0.0 1.0
135 1 -3.86978 -1.85048 -2.3293 0.0 0.0 1.0
136 1 -4.82422 -1.83473 -2.10369 0.0 0.0 1.0
137 1 -4.66554 -0.541576 -1.21334 0.0 0.0 1.0
138 1 -4.32784 -1.40801 -0.756326 0.0 0.0 1.0
139 1 -3.31105 -1.28935 -1.91151 0.0 0.0 1.0
140 1 -3.74648 -0.45733 -1.985 0.0 0.0 1.0
141 1 -2.79591 -2.06704 -1.83591 0.0 0.0 1.0
142 1 -4.6405 -2.1242 -0.208982 0.0 0.0 1.0
143 1 -3.3004 -1.47993 -1.0566 0.0 0.0 1.0
144 1 -3.7784 -0.726582 -1.10749 0.0 0.0 1.0
145 1 -3.51891 -1.81811 -0.246196 0.0 0.0 1.0
146 1 -3.35953 -0.417376 -0.354977 0.0 0.0 1.0
147 1 -4.27319 -0.645129 -0.277536 0.0 0.0 1.0
148 1 -2.67427 -0.99866 -0.579057 0.0 0.0 1.0
149 1 -1.78076 -1.19623 -0.725528 0.0 0.0 1.0
150 1 -1.58186 -1.84444 -1.57817 0.0 0.0 1.0
151 1 -1.38817 -0.219473 -2.43788 0.0 0.0 1.0
152 1 -0.532013 -0.0602767 -0.913041 0.0 0.0 1.0
153 1 -0.62855 -0.150737 -1.91713 0.0 0.0 1.0
154 1 -0.0527596 -1.0301 -0.597958 0.0 0.0 1.0
155 1 -1.19927 -0.631538 -1.29431 0.0 0.0 1.0
156 1 -0.139773 -2.38833 -0.671639 0.0 0.0 1.0
157 1 -2.1735 -0.509571 -1.27025 0.0 0.0 1.0
158 1 -0.963749 -2.18089 -2.22674 0.0 0.0 1.0
159 1 -0.383093 -1.30104 -1.78126 0.0 0.0 1.0
160 1 -1.39814 -2.30103 -0.532748 0.0 0.0 1.0
161 1 -2.30299 -1.96234 -0.673818 0.0 0.0 1.0
162 1 -2.02486 -0.177126 -0.448891 0.0 0.0 1.0
163 1 -2.47276 -1.3213 -1.4693 0.0 0.0 1.0
164 1 -0.901413 -0.723114 -0.390605 0.0 0.0 1.0
165 1 -1.78555 -0.957915 -1.99432 0.0 0.0 1.0
166 1 -0.897312 -1.49083 -1.03286 0.0 0.0 1.0
167 1 -0.0700297 -2.13285 -1.91212 0.0 0.0 1.0
168 1 -0.650627 -1.63749 -0.152659 0.0 0.0 1.0
169 1 -0.765918 -2.41382 -1.35704 0.0 0.0 1.0
170 1 -4.98668 -4.34274 1.2552 0.0 0.0 1.0
171 1 -4.96777 -2.72631 0.808575 0.0 0.0 1.0
172 1 -4.46806 -4.05759 0.142681 0.0 0.0 1.0
173 1 -4.33643 -4.98311 1.2122 0.0 0.0 1.0
174 1 -3.67341 -4.84235 1.80514 0.0 0.0 1.0
175 1 -3.30852 -3.96945 1.13467 0.0 0.0 1.0
176 1 -4.31787 -3.22216 2.16553 0.0 0.0 1.0
177 1 -4.24418 -4.08638 1.8009 0.0 0.0 1.0
178 1 -2.75568 -3.50107 0.525545 0.0 0.0 1.0
179 1 -3.58638 -3.85166 0.295527 0.0 0.0 1.0
180 1 -4.55873 -3.53902 1.05207 0.0 0.0 1.0
181 1 -3.67462 -3.11314 0.908784 0.0 0.0 1.0
182 1 -3.51984 -4.87881 0.821863 0.0 0.0 1.0
183 1 -2.82779 -4.68097 1.37258 0.0 0.0 1.0
184 1 -3.49336 -3.56607 1.95547 0.0 0.0 1.0
185 1 -2.7767 -3.19883 2.35592 0.0 0.0 1.0
186 1 -3.01837 -4.34228 2.21952 0.0 0.0 1.0
187 1 -2.82858 -4.41285 0.456942 0.0 0.0 1.0
188 1 -2.94981 -3.0781 1.43789 0.0 0.0 1.0
189 1 -4.31552 -2.65269 1.43454 0.0 0.0 1.0
190 1 -3.52568 -2.66282 2.32544 0.0 0.0 1.0
191 1 -0.674535 -4.95438 1.85711 0.0 0.0 1.0
192 1 -2.37419 -3.86942 1.29199 0.0 0.0 1.0
193 1 -1.89058 -3.32703 0.662083 0.0 0.0 1.0
194 1 -2.08688 -3.78493 2.15157 0.0 0.0 1.0
195 1 -1.84763 -4.75031 0.356592 0.0 0.0 1.0
196 1 -1.163 -3.9432 0.544746 0.0 0.0 1.0
197 1 -1.33908 -4.52065 1.21722 0.0 0.0 1.0
198 1 -1.9683 -4.83634 1.76759 0.0 0.0 1.0
199 1 -1.07897 -4.12253 2.02256 0.0 0.0 1.0
200 1 -2.10508 -2.97682 1.73689 0.0 0.0 1.0
201 1 -0.607043 -3.20365 0.732698 0.0 0.0 1.0
202 1 -1.46554 -3.61799 1.38854 0.0 0.0 1.0
203 1 -1.40277 -3.16161 2.27067 0.0 0.0 1.0
204 1 -0.578224 -3.96066 1.26173 0.0 0.0 1.0
205 1 -0.429669 -3.13355 1.6448 0.0 0.0 1.0
206 1 -1.23389 -2.69733 1.35186 0.0 0.0 1.0
207 1 -2.43515 -2.58498 0.906456 0.0 0.0 1.0
208 1 -0.357867 -4.69163 0.175066 0.0 0.0 1.0
209 1 -0.74648 -2.54537 2.34255 0.0 0.0 1.0
210 1 -1.26065 -3.17889 0.0348214 0.0 0.0 1.0
211 1 -2.80554 -2.34767 0.0521782 0.0 0.0 1.0
212 1 -3.36854 -1.91197 0.690196 0.0 0.0 1.0
213 1 -4.95504 -1.01744 1.39089 0.0 0.0 1.0
214 1 -4.12211 -2.43011 0.467629 0.0 0.0 1.0
215 1 -3.42859 -0.294736 1.45501 0.0 0.0 1.0
216 1 -4.62044 -2.32076 2.37469 0.0 0.0 1.0
217 1 -4.28131 -1.70898 1.0579 0.0 0.0 1.0
218 1 -4.32587 -0.360418 1.22338 0.0 0.0 1.0
219 1 -4.9793 -1.38114 2.25234 0.0 0.0 1.0
220 1 -4.18477 -1.38877 0.226447 0.0 0.0 1.0
221 1 -3.70653 -1.03158 0.987891 0.0 0.0 1.0
222 1 -4.89171 -0.587946 0.542452 0.0 0.0 1.0
223 1 -2.54606 -2.10518 1.79504 0.0 0.0 1.0
224 1 -3.98051 -1.84899 1.8869 0.0 0.0 1.0
225 1 -4.20851 -0.943728 1.98619 0.0 0.0 1.0
226 1 -3.85537 -0.287236 0.45171 0.0 0.0 1.0
227 1 -3.1831 -1.56472 1.51229 0.0 0.0 1.0
228 1 -2.52733 -0.910226 1.25502 0.0 0.0 1.0
229 1 -3.33211 -0.793701 2.23845 0.0 0.0 1.0
230 1 -4.92197 -0.346497 2.11548 0.0 0.0 1.0
231 1 -3.1217 -1.11643 0.292157 0.0 0.0 1.0
232 1 -3.23382 -1.70762 2.44276 0.0 0.0 1.0
233 1 -2.57496 -0.014556 1.1522 0.0 0.0 1.0
234 1 -4.05656 -0.0277397 2.0734 0.0 0.0 1.0
235 1 -2.55198 -0.229643 2.05646 0.0 0.0 1.0
236 1 -2.41826 -1.70734 0.650198 0.0 0.0 1.0
237 1 -1.82371 -1.97158 2.29537 0.0 0.0 1.0
238 1 -1.61157 -2.48714 0.516624 0.0 0.0 1.0
239 1 -0.220327 -1.25005 1.28403 0.0 0.0 1.0
240 1 -0.101858 -2.1852 1.01531 0.0 0.0 1.0
241 1 -0.805364 -1.90058 1.66792 0.0 0.0 1.0
242 1 -1.70207 -1.05973 0.826347 0.0 0.0 1.0
243 1 -1.44486 -1.2422 1.81957 0.0 0.0 1.0
244 1 -2.47245 -1.22061 2.16078 0.0 0.0 1.0
245 1 -0.900234 -0.60814 1.35513 0.0 0.0 1.0
246 1 -1.75667 -1.94663 1.27093 0.0 0.0 1.0
247 1 -1.77124 -0.423331 1.49506 0.0 0.0 1.0
248 1 -0.0233525 -0.635645 0.287046 0.0 0.0 1.0
249 1 -0.945136 -1.86822 0.751937 0.0 0.0 1.0
250 1 -0.484605 -0.886265 2.12396 0.0 0.0 1.0
251 1 -1.44674 -0.286288 0.301442 0.0 0.0 1.0
252 1 -0.833208 -0.990171 0.509884 0.0 0.0 1.0
253 1 -1.70352 -1.66179 0.0933362 0.0 0.0 1.0
254 1 -2.45706 -0.40005 0.331262 0.0 0.0 1.0
255 1 -0.500043 -2.47515 0.189214 0.0 0.0 1.0
256 1 -4.0876 -4.57333 2.60198 0.0 0.0 1.0
257 1 -2.58481 -3.91949 2.98157 0.0 0.0 1.0
258 1 -2.77462 -4.84636 2.99847 0.0 0.0 1.0
259 1 -3.64258 -4.49356 3.44798 0.0 0.0 1.0
260 1 -4.07283 -3.04544 3.05921 0.0 0.0 1.0
261 1 -4.47544 -3.77567 3.39749 0.0 0.0 1.0
262 1 -4.12126 -3.12009 3.98625 0.0 0.0 1.0
263 1 -2.66531 -2.9464 4.07428 0.0 0.0 1.0
264 1 -3.14072 -3.61162 3.64019 0.0 0.0 1.0
265 1 -3.20778 -2.77237 3.2587 0.0 0.0 1.0
266 1 -3.52589 -3.84348 2.83776 0.0 0.0 1.0
267 1 -3.45568 -3.44974 4.51217 0.0 0.0 1.0
268 1 -2.56676 -4.64457 4.78386 0.0 0.0 1.0
269 1 -2.6986 -4.41883 3.84459 0.0 0.0 1.0
270 1 -1.11531 -4.99435 2.64453 0.0 0.0 1.0
271 1 -1.94427 -4.53953 2.64512 0.0 0.0 1.0
272 1 -0.39909 -4.37538 2.52854 0.0 0.0 1.0
273 1 -0.55312 -3.45658 2.52134 0.0 0.0 1.0
274 1 -1.04835 -3.30147 3.51023 0.0 0.0 1.0
275 1 -1.91935 -4.85045 3.47653 0.0 0.0 1.0
276 1 -0.411403 -3.93973 3.47572 0.0 0.0 1.0
277 1 -1.0642 -3.7965 4.39306 0.0 0.0 1.0
278 1 -1.20261 -4.02612 2.93559 0.0 0.0 1.0
279 1 -1.62758 -4.65006 4.45607 0.0 0.0 1.0
280 1 -1.01825 -4.60934 3.65888 0.0 0.0 1.0
281 1 -0.662908 -3.1497 4.85441 0.0 0.0 1.0
282 1 -1.73359 -3.92755 3.78052 0.0 0.0 1.0
283 1 -0.174463 -4.00521 4.65865 0.0 0.0 1.0
284 1 -1.85286 -3.37882 3.0546 0.0 0.0 1.0
285 1 -1.59757 -2.99615 4.16424 0.0 0.0 1.0
286 1 -2.47768 -3.74271 4.50472 0.0 0.0 1.0
287 1 -0.584315 -2.5633 3.39496 0.0 0.0 1.0
288 1 -0.256644 -3.23325 4.03006 0.0 0.0 1.0
289 1 -1.42756 -2.54947 2.96211 0.0 0.0 1.0
290 1 -0.147714 -4.71563 3.91628 0.0 0.0 1.0
291 1 -4.02679 -0.0327676 4.9265 0.0 0.0 1.0
292 1 -4.1852 -0.230727 4.0625 0.0 0.0 1.0
293 1 -3.58797 -2.47825 4.56733 0.0 0.0 1.0
294 1 -4.61183 -2.41445 3.63789 0.0 0.0 1.0
295 1 -3.81776 -1.19761 2.94913 0.0 0.0 1.0
296 1 -2.61116 -2.32668 2.69837 0.0 0.0 1.0
297 1 -4.83438 -1.66687 3.10314 0.0 0.0 1.0
298 1 -3.83006 -1.81559 3.90673 0.0 0.0 1.0
299 1 -3.96232 -2.12829 3.00619 0.0 0.0 1.0
300 1 -2.94934 -0.908998 3.0703 0.0 0.0 1.0
301 1 -4.39949 -0.436559 2.91245 0.0 0.0 1.0
302 1 -4.40863 -1.71086 4.60689 0.0 0.0 1.0
303 1 -3.62029 -0.330955 3.36432 0.0 0.0 1.0
304 1 -4.35217 -1.05548 3.67788 0.0 0.0 1.0
305 1 -3.12488 -1.86117 3.32934 0.0 0.0 1.0
306 1 -3.93108 -0.918708 4.58207 0.0 0.0 1.0
307 1 -3.36997 -1.04161 3.86258 0.0 0.0 1.0
308 1 -2.72328 -1.07861 4.48854 0.0 0.0 1.0
309 1 -2.81739 -2.01197 4.15963 0.0 0.0 1.0
310 1 -2.5411 -0.14167 4.76653 0.0 0.0 1.0
311 1 -3.39636 -1.6122 4.74227 0.0 0.0 1.0
312 1 -2.15462 -0.593651 2.7901 0.0 0.0 1.0
313 1 -0.014569 -1.90984 4.9731 0.0 0.0 1.0
314 1 -1.25823 -2.39879 4.81595 0.0 0.0 1.0
315 1 -2.1531 -2.3531 4.67609 0.0 0.0 1.0
316 1 -2.17919 -2.43663 3.48172 0.0 0.0 1.0
317 1 -2.42614 -0.448353 3.88 0.0 0.0 1.0
318 1 -0.0476426 -0.272994 4.30676 0.0 0.0 1.0
319 1 -0.643259 -1.50971 4.23304 0.0 0.0 1.0
320 1 -1.25529 -0.800806 2.65345 0.0 0.0 1.0
321 1 -0.1095 -1.73332 2.68178 0.0 0.0 1.0
322 1 -0.0811052 -0.870403 2.93314 0.0 0.0 1.0
323 1 -2.26074 -1.50641 3.03355 0.0 0.0 1.0
324 1 -1.00984 -1.66838 2.51053 0.0 0.0 1.0
325 1 -1.85298 -0.684328 4.57094 0.0 0.0 1.0
326 1 -0.453619 -2.38858 4.35185 0.0 0.0 1.0
327 1 -1.64768 -0.895497 3.48406 0.0 0.0 1.0
328 1 -2.10672 -1.47713 3.97858 0.0 0.0 1.0
329 1 -0.821735 -1.68682 3.37532 0.0 0.0 1.0
330 1 -0.891878 -0.64189 4.48187 0.0 0.0 1.0
331 1 -0.687282 -0.808439 3.60652 0.0 0.0 1.0
332 1 -1.44579 -2.1038 3.92555 0.0 0.0 1.0
333 1 -1.46234 -1.47615 4.63559 0.0 0.0 1.0
334 1 -0.170464 -0.0345407 2.56055 0.0 0.0 1.0
335 1 -4.67718 2.05168 -3.81808 0.0 0.0 1.0
336 1 -3.43281 2.01068 -4.28261 0.0 0.0 1.0
337 1 -4.09781 0.689057 -4.39388 0.0 0.0 1.0
338 1 -4.51891 1.51335 -4.6315 0.0 0.0 1.0
339 1 -3.91602 1.40599 -3.81096 0.0 0.0 1.0
340 1 -3.6265 0.596488 -3.39198 0.0 0.0 1.0
341 1 -4.44795 0.223118 -3.59689 0.0 0.0 1.0
342 1 -3.04379 1.13578 -4.21261 0.0 0.0 1.0
343 1 -3.3036 1.98241 -3.32534 0.0 0.0 1.0
344 1 -2.89533 1.0924 -3.31976 0.0 0.0 1.0
345 1 -3.08231 0.372437 -4.69786 0.0 0.0 1.0
346 1 -4.20358 1.94108 -2.99728 0.0 0.0 1.0
347 1 -4.49178 1.13743 -2.50605 0.0 0.0 1.0
348 1 -4.82178 1.06733 -3.76028 0.0 0.0 1.0
349 1 -2.73993 0.241074 -3.83977 0.0 0.0 1.0
350 1 -3.62365 1.22799 -2.73747 0.0 0.0 1.0
351 1 -2.99022 0.0488873 -2.94885 0.0 0.0 1.0
352 1 -2.55569 1.8129 -3.80961 0.0 0.0 1.0
353 1 -2.66953 2.33625 -4.6218 0.0 0.0 1.0
354 1 -3.82976 0.259231 -2.55465 0.0 0.0 1.0
355 1 -2.80876 1.58366 -2.5219 0.0 0.0 1.0
356 1 -2.42469 2.27311 -3.03279 0.0 0.0 1.0
357 1 -1.69568 1.05197 -4.67746 0.0 0.0 1.0
358 1 -2.08548 0.910577 -3.691 0.0 0.0 1.0
359 1 -1.05737 0.336108 -4.532 0.0 0.0 1.0
360 1 -1.82731 1.88367 -4.3045 0.0 0.0 1.0
361 1 -0.995671 1.66481 -4.68489 0.0 0.0 1.0
362 1 -1.24406 1.2057 -3.89472 0.0 0.0 1.0
363 1 -1.92593 0.164723 -4.31021 0.0 0.0 1.0
364 1 -1.00062 0.488311 -3.42087 0.0 0.0 1.0
365 1 -1.08396 2.09197 -3.83401 0.0 0.0 1.0
366 1 -1.01895 1.56604 -3.09048 0.0 0.0 1.0
367 1 -0.378825 1.36157 -4.13586 0.0 0.0 1.0
368 1 -1.14267 2.2662 -2.5429 0.0 0.0 1.0
369 1 -1.42631 0.832731 -2.65225 0.0 0.0 1.0
370 1 -1.97247 1.50314 -2.97609 0.0 0.0 1.0
371 1 -0.242995 1.038 -3.32043 0.0 0.0 1.0
372 1 -0.161381 2.13363 -3.78157 0.0 0.0 1.0
373 1 -0.31192 0.425461 -4.03271 0.0 0.0 1.0
374 1 -1.94484 0.178152 -3.12379 0.0 0.0 1.0
375 1 -0.54635 0.492799 -2.60885 0.0 0.0 1.0
376 1 -0.569268 2.47503 -4.54314 0.0 0.0 1.0
377 1 -1.4091 2.46705 -4.91987 0.0 0.0 1.0
378 1 -0.226725 2.31747 -2.71493 0.0 0.0 1.0
379 1 -0.113397 0.883947 -4.85472 0.0 0.0 1.0
380 1 -3.5025 2.86024 -4.94951 0.0 0.0 1.0
381 1 -2.65574 3.26064 -4.89327 0.0 0.0 1.0
382 1 -4.71086 3.25398 -3.62966 0.0 0.0 1.0
383 1 -4.97468 2.52667 -3.004 0.0 0.0 1.0
384 1 -2.86226 2.70881 -3.71005 0.0 0.0 1.0
385 1 -4.36579 2.59897 -4.6397 0.0 0.0 1.0
386 1 -3.74272 2.81071 -3.94202 0.0 0.0 1.0
387 1 -4.08214 3.79159 -3.12604 0.0 0.0 1.0
388 1 -3.79742 4.83683 -3.31693 0.0 0.0 1.0
389 1 -3.9944 3.66409 -4.15576 0.0 0.0 1.0
390 1 -3.06836 3.86039 -3.18517 0.0 0.0 1.0
391 1 -3.39745 3.8466 -4.94558 0.0 0.0 1.0
392 1 -2.64735 3.52995 -3.98638 0.0 0.0 1.0
393 1 -3.23993 4.25665 -4.10099 0.0 0.0 1.0
394 1 -3.10482 3.018 -2.78149 0.0 0.0 1.0
395 1 -3.97831 2.86017 -3.05415 0.0 0.0 1.0
396 1 -4.65019 3.33474 -2.55502 0.0 0.0 1.0
397 1 -2.29232 3.27632 -3.17745 0.0 0.0 1.0
398 1 -0.441631 4.57502 -4.09873 0.0 0.0 1.0
399 1 -1.57649 2.66875 -3.25137 0.0 0.0 1.0
400 1 -0.6431 2.80115 -3.37956 0.0 0.0 1.0
401 1 -2.17997 4.55878 -3.08273 0.0 0.0 1.0
402 1 -0.990955 3.47995 -4.88613 0.0 0.0 1.0
403 1 -2.22986 4.49778 -4.23236 0.0 0.0 1.0
404 1 -1.22645 4.37306 -4.61963 0.0 0.0 1.0
405 1 -1.1794 3.00212 -4.09181 0.0 0.0 1.0
406 1 -1.82183 3.63172 -4.45528 0.0 0.0 1.0
407 1 -1.28941 4.46023 -3.69339 0.0 0.0 1.0
408 1 -1.48021 3.58729 -3.44108 0.0 0.0 1.0
409 1 -2.04898 2.75755 -4.09437 0.0 0.0 1.0
410 1 -0.608615 3.81414 -2.8565 0.0 0.0 1.0
411 1 -0.627765 3.72513 -3.75052 0.0 0.0 1.0
412 1 -0.575291 4.90477 -3.22333 0.0 0.0 1.0
413 1 -1.41021 4.20509 -2.76471 0.0 0.0 1.0
414 1 -0.285242 4.17565 -4.97027 0.0 0.0 1.0
415 1 -0.214607 3.28354 -4.41038 0.0 0.0 1.0
416 1 -4.07413 0.138627 -1.04092 0.0 0.0 1.0
417 1 -2.70282 0.661698 -2.2812 0.0 0.0 1.0
418 1 -3.48487 2.22971 -2.47928 0.0 0.0 1.0
419 1 -4.25476 0.926054 -1.57736 0.0 0.0 1.0
420 1 -4.11627 1.65258 -1.03831 0.0 0.0 1.0
421 1 -3.49877 1.42315 -1.72298 0.0 0.0 1.0
422 1 -2.63667 1.1578 -1.50302 0.0 0.0 1.0
423 1 -3.44305 0.863576 -0.934383 0.0 0.0 1.0
424 1 -4.47172 0.894282 -0.674869 0.0 0.0 1.0
425 1 -4.65644 1.80174 -0.309887 0.0 0.0 1.0
426 1 -3.21856 1.7419 -0.870602 0.0 0.0 1.0
427 1 -4.38303 1.80349 -1.89119 0.0 0.0 1.0
428 1 -2.82593 2.07378 -1.72267 0.0 0.0 1.0
429 1 -3.83562 2.38915 -0.574635 0.0 0.0 1.0
430 1 -4.47069 0.0892961 -1.91537 0.0 0.0 1.0
431 1 -4.81689 0.0719411 -0.429035 0.0 0.0 1.0
432 1 -3.47894 0.437607 -1.73865 0.0 0.0 1.0
433 1 -3.79145 1.41415 -0.215616 0.0 0.0 1.0
434 1 -2.75238 0.478943 -0.446966 0.0 0.0 1.0
435 1 -4.66367 2.41287 -1.2077 0.0 0.0 1.0
436 1 -3.04643 2.32166 -0.0186301 0.0 0.0 1.0
437 1 -3.73597 2.34846 -1.49345 0.0 0.0 1.0
438 1 -3.96692 0.485803 -0.0451794 0.0 0.0 1.0
439 1 -0.0231799 2.35213 -0.461521 0.0 0.0 1.0
440 1 -2.10038 0.0551485 -1.98944 0.0 0.0 1.0
441 1 -2.38848 2.00994 -0.672811 0.0 0.0 1.0
442 1 -1.84415 0.947009 -1.86377 0.0 0.0 1.0
443 1 -2.16006 0.418854 -1.13508 0.0 0.0 1.0
444 1 -0.583463 0.782197 -1.67698 0.0 0.0 1.0
445 1 -1.95869 1.82494 -2.11833 0.0 0.0 1.0
446 1 -1.06955 1.56132 -1.88906 0.0 0.0 1.0
447 1 -1.33647 0.249586 -1.50447 0.0 0.0 1.0
448 1 -1.7941 1.62739 -1.23242 0.0 0.0 1.0
449 1 -0.32159 2.19467 -1.62012 0.0 0.0 1.0
450 1 -2.04036 1.15084 -0.471423 0.0 0.0 1.0
451 1 -1.54351 1.98102 -0.382608 0.0 0.0 1.0
452 1 -0.778956 1.47514 -1.00625 0.0 0.0 1.0
453 1 -1.248 2.43958 -1.64695 0.0 0.0 1.0
454 1 -1.23537 0.328929 -0.430798 0.0 0.0 1.0
455 1 -0.356185 1.45153 -2.442 0.0 0.0 1.0
456 1 -0.699751 1.84757 -0.152655 0.0 0.0 1.0
457 1 -0.556225 0.934507 -0.213462 0.0 0.0 1.0
458 1 -3.28305 3.98061 -2.31101 0.0 0.0 1.0
459 1 -3.62873 4.90493 -2.42022 0.0 0.0 1.0
460 1 -4.9486 3.30351 -1.62468 0.0 0.0 1.0
461 1 -4.98181 3.33397 -0.710121 0.0 0.0 1.0
462 1 -4.98385 4.1653 -1.22001 0.0 0.0 1.0
463 1 -4.87747 2.5247 -2.10392 0.0 0.0 1.0
464 1 -4.21968 4.1691 -2.23107 0.0 0.0 1.0
465 1 -3.91217 3.07716 -2.06587 0.0 0.0 1.0
466 1 -4.13758 3.12083 -1.03082 0.0 0.0 1.0
467 1 -4.88572 4.13175 -0.245679 0.0 0.0 1.0
468 1 -4.2801 3.2782 -0.119226 0.0 0.0 1.0
469 1 -2.97519 2.99361 -1.84561 0.0 0.0 1.0
470 1 -4.16847 4.02171 -0.841634 0.0 0.0 1.0
471 1 -3.58987 4.28942 -1.51876 0.0 0.0 1.0
472 1 -3.01347 2.61576 -0.97485 0.0 0.0 1.0
473 1 -3.27886 4.22084 -0.564535 0.0 0.0 1.0
474 1 -3.2597 3.49719 -1.14957 0.0 0.0 1.0
475 1 -3.84201 4.94135 -0.892742 0.0 0.0 1.0
476 1 -2.5731 3.53149 -0.15973 0.0 0.0 1.0
477 1 -3.40836 3.17306 -0.301472 0.0 0.0 1.0
478 1 -2.503 4.56342 -1.29285 0.0 0.0 1.0
479 1 -4.98736 2.64443 -0.0582879 0.0 0.0 1.0
480 1 -1.06152 4.84575 -2.25811 0.0 0.0 1.0
481 1 -0.938818 2.58746 -0.748587 0.0 0.0 1.0
482 1 -2.10693 2.63022 -1.36427 0.0 0.0 1.0
483 1 -2.46294 3.56221 -2.3443 0.0 0.0 1.0
484 1 -2.26104 4.89908 -2.1263 0.0 0.0 1.0
485 1 -2.37028 3.64267 -1.34967 0.0 0.0 1.0
486 1 -0.0770909 3.67932 -2.03623 0.0 0.0 1.0
487 1 -2.19394 2.68668 -2.27045 0.0 0.0 1.0
488 1 -0.185262 4.54547 -2.42686 0.0 0.0 1.0
489 1 -0.943769 3.89689 -1.92867 0.0 0.0 1.0
490 1 -0.641548 3.03306 -2.38844 0.0 0.0 1.0
491 1 -1.85458 4.11989 -1.92165 0.0 0.0 1.0
492 1 -0.306177 3.26577 -0.590698 0.0 0.0 1.0
493 1 -1.54372 3.34148 -2.41147 0.0 0.0 1.0
494 1 -1.43624 3.31262 -1.45036 0.0 0.0 1.0
495 1 -1.97365 2.85868 -0.481857 0.0 0.0 1.0
496 1 -1.13416 4.69267 -0.373835 0.0 0.0 1.0
497 1 -0.531985 3.10583 -1.46341 0.0 0.0 1.0
498 1 -0.908689 3.89241 -0.899199 0.0 0.0 1.0
499 1 -0.241636 4.43862 -0.527567 0.0 0.0 1.0
500 1 -0.258575 4.35303 -1.45377 0.0 0.0 1.0
501 1 -1.78736 3.82812 -0.695623 0.0 0.0 1.0
502 1 -1.20752 4.60107 -1.40431 0.0 0.0 1.0
503 1 -4.94803 1.88957 0.560264 0.0 0.0 1.0
504 1 -4.6565 1.90402 1.46523 0.0 0.0 1.0
505 1 -3.09779 1.38145 2.27679 0.0 0.0 1.0
506 1 -3.39861 2.35236 0.832443 0.0 0.0 1.0
507 1 -2.89673 1.5337 1.34309 0.0 0.0 1.0
508 1 -4.74195 0.303224 0.523508 0.0 0.0 1.0
509 1 -4.15642 2.39723 0.309886 0.0 0.0 1.0
510 1 -3.82249 0.871348 1.85554 0.0 0.0 1.0
511 1 -4.37015 1.17981 0.489669 0.0 0.0 1.0
512 1 -4.68087 1.13788 2.0011 0.0 0.0 1.0
513 1 -3.46232 1.40925 0.619452 0.0 0.0 1.0
514 1 -4.60041 0.484845 1.41726 0.0 0.0 1.0
515 1 -3.7797 0.523408 0.993 0.0 0.0 1.0
516 1 -2.9997 0.527327 1.74614 0.0 0.0 1.0
517 1 -2.92359 2.22787 1.98095 0.0 0.0 1.0
518 1 -3.77767 1.79869 1.72395 0.0 0.0 1.0
519 1 -3.11721 0.295362 0.383065 0.0 0.0 1.0
520 1 -4.86696 2.49595 2.47201 0.0 0.0 1.0
521 1 -2.68887 1.12052 0.234269 0.0 0.0 1.0
522 1 -2.23892 0.816599 0.966605 0.0 0.0 1.0
523 1 -2.23422 1.10071 1.81501 0.0 0.0 1.0
524 1 -1.29484 1.35043 1.37635 0.0 0.0 1.0
525 1 -1.50091 1.32833 0.445532 0.0 0.0 1.0
526 1 -2.22407 1.91821 0.197766 0.0 0.0 1.0
527 1 -0.617056 1.32467 0.732394 0.0 0.0 1.0
528 1 -0.353762 0.853539 2.2854 0.0 0.0 1.0
529 1 -1.15704 2.21663 0.57486 0.0 0.0 1.0
530 1 -0.788468 1.68204 2.10288 0.0 0.0 1.0
531 1 -1.12715 0.511949 0.717743 0.0 0.0 1.0
532 1 -1.33723 0.953471 2.24113 0.0 0.0 1.0
533 1 -0.723496 2.22356 1.38652 0.0 0.0 1.0
534 1 -1.91701 0.529492 0.16549 0.0 0.0 1.0
535 1 -2.04652 2.02448 1.8898 0.0 0.0 1.0
536 1 -0.119949 0.979095 1.41984 0.0 0.0 1.0
537 1 -1.55695 0.458091 1.52066 0.0 0.0 1.0
538 1 -0.828313 0.0974165 1.95963 0.0 0.0 1.0
539 1 -2.04953 1.75813 1.04155 0.0 0.0 1.0
540 1 -0.507944 0.107126 0.162689 0.0 0.0 1.0
541 1 -0.351889 0.100249 1.13385 0.0 0.0 1.0
542 1 -1.66622 0.0606748 2.36847 0.0 0.0 1.0
543 1 -4.99848 3.45793 0.435159 0.0 0.0 1.0
544 1 -4.93522 3.41281 2.21022 0.0 0.0 1.0
545 1 -4.42905 2.78697 1.64037 0.0 0.0 1.0
546 1 -4.75687 3.62105 1.30205 0.0 0.0 1.0
547 1 -2.70439 2.92704 1.21023 0.0 0.0 1.0
548 1 -3.54831 2.76544 1.64483 0.0 0.0 1.0
549 1 -4.48681 4.21737 2.10265 0.0 0.0 1.0
550 1 -3.3605 3.6601 0.477265 0.0 0.0 1.0
551 1 -3.91144 3.61226 1.71794 0.0 0.0 1.0
552 1 -2.8324 3.15305 2.16842 0.0 0.0 1.0
553 1 -3.06091 3.76409 1.42391 0.0 0.0 1.0
554 1 -3.81938 4.26087 1.0353 0.0 0.0 1.0
555 1 -4.10693 3.16965 2.46831 0.0 0.0 1.0
556 1 -4.77429 4.5844 0.62822 0.0 0.0 1.0
557 1 -2.52988 4.09669 2.30376 0.0 0.0 1.0
558 1 -3.63694 4.55069 1.92354 0.0 0.0 1.0
559 1 -4.02086 3.17092 0.869404 0.0 0.0 1.0
560 1 -2.74249 4.59823 1.50293 0.0 0.0 1.0
561 1 -3.00271 4.49377 0.286455 0.0 0.0 1.0
562 1 -3.37086 3.84769 2.44017 0.0 0.0 1.0
563 1 -3.99066 4.30278 0.0828734 0.0 0.0 1.0
564 1 -0.365351 3.72512 2.0746 0.0 0.0 1.0
565 1 -0.967943 3.05341 0.985494 0.0 0.0 1.0
566 1 -1.79777 2.69953 1.2355 0.0 0.0 1.0
567 1 -0.531846 2.8702 2.37236 0.0 0.0 1.0
568 1 -1.91549 4.33851 0.0922958 0.0 0.0 1.0
569 1 -2.45033 3.87492 0.735146 0.0 0.0 1.0
570 1 -1.06763 4.80453 0.643955 0.0 0.0 1.0
571 1 -1.26926 3.38301 1.82386 0.0 0.0 1.0
572 1 -0.585836 3.88087 1.08946 0.0 0.0 1.0
573 1 -1.90646 4.64564 1.89892 0.0 0.0 1.0
574 1 -1.40854 2.55963 2.21502 0.0 0.0 1.0
575 1 -2.16017 3.53075 1.65918 0.0 0.0 1.0
576 1 -0.179502 2.9808 1.4397 0.0 0.0 1.0
577 1 -1.55533 3.77947 1.00566 0.0 0.0 1.0
578 1 -1.07006 4.32208 1.75145 0.0 0.0 1.0
579 1 -0.294684 4.64589 2.18749 0.0 0.0 1.0
580 1 -0.187915 4.4441 0.421354 0.0 0.0 1.0
581 1 -1.24966 4.83318 2.49896 0.0 0.0 1.0
582 1 -2.33721 2.80301 0.394878 0.0 0.0 1.0
583 1 -0.978758 3.93896 0.257405 0.0 0.0 1.0
584 1 -1.92436 4.65927 0.973641 0.0 0.0 1.0
585 1 -0.309154 3.24714 0.342266 0.0 0.0 1.0
586 1 -0.456399 4.81309 1.30875 0.0 0.0 1.0
587 1 -1.21395 3.02259 0.0402524 0.0 0.0 1.0
588 1 -3.30927 0.0662927 2.58493 0.0 0.0 1.0
589 1 -3.31642 0.137828 4.33057 0.0 0.0 1.0
590 1 -4.94587 1.52927 2.76999 0.0 0.0 1.0
591 1 -4.69431 0.330264 3.5557 0.0 0.0 1.0
592 1 -3.64985 2.4018 2.53217 0.0 0.0 1.0
593 1 -2.86554 0.183913 3.39561 0.0 0.0 1.0
594 1 -4.03678 1.57201 2.59737 0.0 0.0 1.0
595 1 -3.45113 0.901534 2.91516 0.0 0.0 1.0
596 1 -3.50842 1.46723 3.68483 0.0 0.0 1.0
597 1 -3.81287 0.55085 3.64238 0.0 0.0 1.0
598 1 -2.68238 1.05521 3.34764 0.0 0.0 1.0
599 1 -4.32083 0.665595 2.73 0.0 0.0 1.0
600 1 -4.09533 0.778652 4.48127 0.0 0.0 1.0
601 1 -3.78863 1.73116 4.77131 0.0 0.0 1.0
602 1 -3.06766 2.06172 3.1633 0.0 0.0 1.0
603 1 -3.05527 2.10549 4.39225 0.0 0.0 1.0
604 1 -3.04265 1.02818 4.29876 0.0 0.0 1.0
605 1 -4.43828 1.2873 3.52231 0.0 0.0 1.0
606 1 -4.90102 0.26975 4.48551 0.0 0.0 1.0
607 1 -4.39879 2.19277 3.24006 0.0 0.0 1.0
608 1 -3.6919 2.41551 3.8141 0.0 0.0 1.0
609 1 -0.137907 0.649129 3.16518 0.0 0.0 1.0
610 1 -1.84093 0.0611464 3.3302 0.0 0.0 1.0
611 1 -1.49566 0.169522 4.2848 0.0 0.0 1.0
612 1 -0.703459 0.332602 4.66632 0.0 0.0 1.0
613 1 -1.60473 1.71666 2.66217 0.0 0.0 1.0
614 1 -2.37702 2.36457 2.69824 0.0 0.0 1.0
615 1 -2.46177 0.541165 2.6144 0.0 0.0 1.0
616 1 -2.14691 1.79897 3.45036 0.0 0.0 1.0
617 1 -0.958956 0.384605 2.85774 0.0 0.0 1.0
618 1 -1.74547 0.964929 3.55678 0.0 0.0 1.0
619 1 -0.686383 2.2625 3.08282 0.0 0.0 1.0
620 1 -1.78795 2.2921 4.3779 0.0 0.0 1.0
621 1 -1.55363 2.46121 3.24528 0.0 0.0 1.0
622 1 -0.713648 0.116799 3.70651 0.0 0.0 1.0
623 1 -2.32829 0.476124 4.10534 0.0 0.0 1.0
624 1 -1.5149 1.12147 4.45576 0.0 0.0 1.0
625 1 -2.29254 1.54567 4.34304 0.0 0.0 1.0
626 1 -0.608015 1.03981 4.0463 0.0 0.0 1.0
627 1 -1.31753 1.75955 3.83428 0.0 0.0 1.0
628 1 -0.826789 1.30114 3.20208 0.0 0.0 1.0
629 1 -0.787023 1.61338 4.71657 0.0 0.0 1.0
630 1 -0.477629 2.111 3.99315 0.0 0.0 1.0
631 1 -0.122141 1.66329 2.70493 0.0 0.0 1.0
632 1 -2.38915 0.727505 4.9972 0.0 0.0 1.0
633 1 -4.1949 4.96165 2.59772 0.0 0.0 1.0
634 1 -4.6244 3.11413 3.22732 0.0 0.0 1.0
635 1 -3.15362 3.25647 3.97918 0.0 0.0 1.0
636 1 -4.00393 4.26472 3.22331 0.0 0.0 1.0
637 1 -2.76354 3.14215 3.10881 0.0 0.0 1.0
638 1 -4.91267 3.98623 2.91727 0.0 0.0 1.0
639 1 -3.12403 3.95815 3.34082 0.0 0.0 1.0
640 1 -3.70434 3.19001 3.28771 0.0 0.0 1.0
641 1 -3.67297 4.05151 4.09784 0.0 0.0 1.0
642 1 -2.6422 4.67834 3.63727 0.0 0.0 1.0
643 1 -2.55338 2.54238 3.80022 0.0 0.0 1.0
644 1 -3.20507 3.04495 4.87568 0.0 0.0 1.0
645 1 -0.575646 2.50496 4.84975 0.0 0.0 1.0
646 1 -1.56866 4.00019 2.50776 0.0 0.0 1.0
647 1 -2.48269 3.88165 4.11755 0.0 0.0 1.0
648 1 -0.105323 3.83909 3.81995 0.0 0.0 1.0
649 1 -0.00749293 3.06169 4.34155 0.0 0.0 1.0
650 1 -2.06835 4.74229 2.86372 0.0 0.0 1.0
651 1 -1.98361 3.2054 2.58314 0.0 0.0 1.0
652 1 -2.14834 4.65084 4.55238 0.0 0.0 1.0
653 1 -2.17551 3.89511 3.21254 0.0 0.0 1.0
654 1 -2.17318 3.11296 4.6154 0.0 0.0 1.0
655 1 -0.358725 4.74596 3.83533 0.0 0.0 1.0
656 1 -1.17353 4.59797 4.37881 0.0 0.0 1.0
657 1 -1.1978 2.96503 4.36709 0.0 0.0 1.0
658 1 -1.85808 3.2009 3.70899 0.0 0.0 1.0
659 1 -1.62609 3.7968 4.44402 0.0 0.0 1.0
660 1 -1.01141 3.86934 3.75332 0.0 0.0 1.0
661 1 -0.573362 3.02462 3.6466 0.0 0.0 1.0
662 1 -1.17852 3.32135 3.00389 0.0 0.0 1.0
663 1 -0.713801 4.12492 2.87904 0.0 0.0 1.0
664 1 -1.28414 4.65892 3.42207 0.0 0.0 1.0
665 1 -0.735243 3.72096 4.68805 0.0 0.0 1.0
666 1 0.225138 -4.82332 -3.78385 0.0 0.0 1.0
667 1 2.18816 -3.44365 -4.75125 0.0 0.0 1.0
668 1 0.427349 -4.19773 -4.44771 0.0 0.0 1.0
669 1 1.52563 -4.34652 -2.73411 0.0 0.0 1.0
670 1 1.20027 -4.84262 -4.57463 0.0 0.0 1.0
671 1 1.98041 -4.30683 -4.41498 0.0 0.0 1.0
672 1 1.15237 -4.5444 -3.70933 0.0 0.0 1.0
673 1 2.10074 -3.59764 -2.92858 0.0 0.0 1.0