LAMMPS data file from restart file: timestep = 0, procs = 1

2818 atoms

2 atom types

-25.50000000000e+00 24.50000000000e+00 xlo xhi
-25.50000000000e+00 24.50000000000e+00 ylo yhi
-10.00000000000e+01 10.00000000000e+01 zlo zhi

Masses

1 1.0
2 1.0

Atoms

1 1 24.724565879851383 3.703877997580996 0.0 0.0 0.0 1.0
2 1 11.534840068819229 11.520059273767444 0.0 0.0 0.0 1.0
3 1 11.758123266182565 1.4267962889872763 0.0 0.0 0.0 1.0
4 1 13.830380615434464 10.620649729862706 0.0 0.0 0.0 1.0
5 1 -24.147747248896167 22.432887443285985 0.0 0.0 0.0 1.0
6 1 -4.701994138931063 21.155687186101815 0.0 0.0 0.0 1.0
7 1 -19.812907550502104 16.116825160403145 0.0 0.0 0.0 1.0
8 1 0.9346088213257779 23.46595637308738 0.0 0.0 0.0 1.0
9 1 0.9888680292489553 14.03200850317912 0.0 0.0 0.0 1.0
10 1 8.317210525663285 14.625224494855196 0.0 0.0 0.0 1.0
11 1 24.56197485109913 -7.400155064633733 0.0 0.0 0.0 1.0
12 1 -22.248889133903937 17.929813869427996 0.0 0.0 0.0 1.0
13 1 24.464456053854498 5.868984844845627 0.0 0.0 0.0 1.0
14 1 -1.2075892959992274 -20.786665846586928 0.0 0.0 0.0 1.0
15 1 20.802973662253493 7.099383532008119 0.0 0.0 0.0 1.0
16 1 -19.134273328555494 18.912664469581635 0.0 0.0 0.0 1.0
17 1 19.783492012775724 -11.30167414359856 0.0 0.0 0.0 1.0
18 1 0.4964888298014074 4.715560260531511 0.0 0.0 0.0 1.0
19 1 -16.387226368182883 -23.788651668509292 0.0 0.0 0.0 1.0
20 1 12.332303484096286 24.673024834216427 0.0 0.0 0.0 1.0
21 1 3.9225250327491423 12.266279001905914 0.0 0.0 0.0 1.0
22 1 10.197516529164012 -6.2057071136560005 0.0 0.0 0.0 1.0
23 1 -17.41121375046321 -10.21982760469356 0.0 0.0 0.0 1.0
24 1 15.16667281431274 -23.241722254182484 0.0 0.0 0.0 1.0
25 1 -3.3478631559380254 -21.335817666801304 0.0 0.0 0.0 1.0
26 1 -5.193377980552988 -6.375853050746272 0.0 0.0 0.0 1.0
27 1 -1.9184404962623347 1.8830503405783965 0.0 0.0 0.0 1.0
28 1 -18.341233174769595 17.709699499405872 0.0 0.0 0.0 1.0
29 1 -11.744551759117611 0.8855867462341749 0.0 0.0 0.0 1.0
30 1 -0.8071457632843213 -7.919040239446069 0.0 0.0 0.0 1.0
31 1 -10.439741761172433 -15.591051784636628 0.0 0.0 0.0 1.0
32 1 -5.0558143225591365 -9.070936391437185 0.0 0.0 0.0 1.0
33 1 -11.124915722232254 10.584236307075123 0.0 0.0 0.0 1.0
34 1 17.925406999779888 -20.286332248709897 0.0 0.0 0.0 1.0
35 1 -23.3546634198944 7.662126286886064 0.0 0.0 0.0 1.0
36 1 -19.618782998295984 -16.7835081300464 0.0 0.0 0.0 1.0
37 1 -12.73378559730522 11.057005934543 0.0 0.0 0.0 1.0
38 1 12.632383439833276 -19.75047693765351 0.0 0.0 0.0 1.0
39 1 -14.023788593419484 -0.07310574892670019 0.0 0.0 0.0 1.0
40 1 21.806632775816873 16.081948455986094 0.0 0.0 0.0 1.0
41 1 0.9568134841284213 -4.5560347901345715 0.0 0.0 0.0 1.0
42 1 -21.556523615484934 20.7067154758156 0.0 0.0 0.0 1.0
43 1 10.526380622200584 -20.646282342154045 0.0 0.0 0.0 1.0
44 1 -5.379269642906596 -0.9587300369610041 0.0 0.0 0.0 1.0
45 1 21.951854424473552 24.931367710358572 0.0 0.0 0.0 1.0
46 1 -22.39847910033923 9.210295144204764 0.0 0.0 0.0 1.0
47 1 -7.849428348542375 21.612816800101648 0.0 0.0 0.0 1.0
48 1 13.987691700833501 22.9118427552865 0.0 0.0 0.0 1.0
49 1 17.893826202474585 -1.7260871477075277 0.0 0.0 0.0 1.0
50 1 -17.051775543795323 11.367531131819781 0.0 0.0 0.0 1.0
51 1 18.714275762936232 -2.7735372788631985 0.0 0.0 0.0 1.0
52 1 -11.144828434990345 14.746392598800206 0.0 0.0 0.0 1.0
53 1 0.3442969657704147 21.155943191500768 0.0 0.0 0.0 1.0
54 1 -19.223855515642875 -19.49498269123388 0.0 0.0 0.0 1.0
55 1 5.925357013489368 -4.805890069567553 0.0 0.0 0.0 1.0
56 1 -24.574242863614092 19.553529465340652 0.0 0.0 0.0 1.0
57 1 -13.890196040306918 -6.7051496162892406 0.0 0.0 0.0 1.0
58 1 9.405111067654566 -18.019153962996025 0.0 0.0 0.0 1.0
59 1 -0.044844602982514914 -2.2556300080135543 0.0 0.0 0.0 1.0
60 1 -11.21391946335249 11.900558141577804 0.0 0.0 0.0 1.0
61 1 11.466112815528945 -6.042228462828842 0.0 0.0 0.0 1.0
62 1 -5.940559815831474 11.095091324342619 0.0 0.0 0.0 1.0
63 1 6.852675363950141 0.10539688046456419 0.0 0.0 0.0 1.0
64 1 9.45317381158958 -14.241795479846775 0.0 0.0 0.0 1.0
65 1 8.646221199983643 -8.801824594403996 0.0 0.0 0.0 1.0
66 1 -13.081862320015903 16.5776999610747 0.0 0.0 0.0 1.0
67 1 -2.9347363894276484 20.51191777332952 0.0 0.0 0.0 1.0
68 1 16.248688654566223 18.635485751015437 0.0 0.0 0.0 1.0
69 1 -12.92716774409558 -7.900894708173457 0.0 0.0 0.0 1.0
70 1 11.278902514276929 19.51944752920472 0.0 0.0 0.0 1.0
71 1 -9.223762484331633 -1.448215905132077 0.0 0.0 0.0 1.0
72 1 11.584540573527796 9.96972340617247 0.0 0.0 0.0 1.0
73 1 -11.62963701710743 -14.437449921179113 0.0 0.0 0.0 1.0
74 1 -0.2021976073116285 -17.123549432840115 0.0 0.0 0.0 1.0
75 1 -16.50954939163104 -4.836379139958375 0.0 0.0 0.0 1.0
76 1 15.214345819530706 -6.352971649731515 0.0 0.0 0.0 1.0
77 1 5.732373564346116 14.947977020952628 0.0 0.0 0.0 1.0
78 1 -19.100703585207167 -14.900478473738922 0.0 0.0 0.0 1.0
79 1 -24.76071569615865 -9.677128566465893 0.0 0.0 0.0 1.0
80 1 -10.63171144252562 -6.244140185875498 0.0 0.0 0.0 1.0
81 1 -14.658443109302954 -14.216687299449166 0.0 0.0 0.0 1.0
82 1 21.371571150878715 -13.814132752668208 0.0 0.0 0.0 1.0
83 1 24.346638533250754 -0.7167452631371027 0.0 0.0 0.0 1.0
84 1 -7.706123233258872 -23.48424816501904 0.0 0.0 0.0 1.0
85 1 -23.49729638211536 -23.080849613259403 0.0 0.0 0.0 1.0
86 1 24.634483711461755 23.92106166653499 0.0 0.0 0.0 1.0
87 1 20.862576604331267 -23.847973639693294 0.0 0.0 0.0 1.0
88 1 3.499146976832879 -20.499271535682738 0.0 0.0 0.0 1.0
89 1 -12.190296594194855 -10.384512309143712 0.0 0.0 0.0 1.0
90 1 -12.626028425083085 -21.13857938012407 0.0 0.0 0.0 1.0
91 1 24.332982259221467 -8.290439917282555 0.0 0.0 0.0 1.0
92 1 -15.731582357402418 -19.632728788817655 0.0 0.0 0.0 1.0
93 1 -1.0955567874677712 -3.0196697449823517 0.0 0.0 0.0 1.0
94 1 -8.283042216880578 -3.9830225064194806 0.0 0.0 0.0 1.0
95 1 -19.039196781289462 -6.4482082958638 0.0 0.0 0.0 1.0
96 1 21.57320600795049 6.822386894858418 0.0 0.0 0.0 1.0
97 1 -17.555103293422185 -5.930453144141467 0.0 0.0 0.0 1.0
98 1 7.606956100395642 17.79121699468203 0.0 0.0 0.0 1.0
99 1 -8.836107305241491 22.57758891636776 0.0 0.0 0.0 1.0
100 1 -1.0433664950710018 20.40672340986655 0.0 0.0 0.0 1.0
101 1 19.279679112236238 5.017916991888072 0.0 0.0 0.0 1.0
102 1 -23.206712935115686 3.246021627356644 0.0 0.0 0.0 1.0
103 1 15.09539271115824 -8.00922614182273 0.0 0.0 0.0 1.0
104 1 -21.184358618958605 -11.706656521814562 0.0 0.0 0.0 1.0
105 1 10.668871883148832 -2.1836682204996087 0.0 0.0 0.0 1.0
106 1 7.822705738602082 0.982061192376193 0.0 0.0 0.0 1.0
107 1 3.279903962642816 -23.744635893411463 0.0 0.0 0.0 1.0
108 1 12.236096057823566 -24.919697796635777 0.0 0.0 0.0 1.0
109 1 -17.188810311800374 -8.844080293634754 0.0 0.0 0.0 1.0
110 1 15.978336473809115 -3.504705397984605 0.0 0.0 0.0 1.0
111 1 5.408891710986509 -22.39121382222548 0.0 0.0 0.0 1.0
112 1 -2.850277443419742 -12.67561362665629 0.0 0.0 0.0 1.0
113 1 13.631331913747495 -8.800970769774114 0.0 0.0 0.0 1.0
114 1 7.619348335744462 24.5288432011399 0.0 0.0 0.0 1.0
115 1 13.94920080150041 -0.2719143505461723 0.0 0.0 0.0 1.0
116 1 -7.841604902454684 14.843280646781487 0.0 0.0 0.0 1.0
117 1 -11.086550052547938 9.40715558809299 0.0 0.0 0.0 1.0
118 1 10.065005099652915 -17.314458292346096 0.0 0.0 0.0 1.0
119 1 20.912151732274822 19.483207426650907 0.0 0.0 0.0 1.0
120 1 23.585121981515073 -12.60523360953753 0.0 0.0 0.0 1.0
121 1 6.1844767052161025 17.59622697563813 0.0 0.0 0.0 1.0
122 1 17.791134176707715 10.801098632787074 0.0 0.0 0.0 1.0
123 1 24.58505001290252 -24.78121792597459 0.0 0.0 0.0 1.0
124 1 -23.863498737488676 -6.054048411386663 0.0 0.0 0.0 1.0
125 1 -13.234143045938335 -2.0740672138585268 0.0 0.0 0.0 1.0
126 1 7.660741271458612 23.482395416213848 0.0 0.0 0.0 1.0
127 1 -5.622060025669612 -11.532038336651878 0.0 0.0 0.0 1.0
128 1 -19.3523805826683 0.9848595755370653 0.0 0.0 0.0 1.0
129 1 0.8732463048191654 -20.521907293851292 0.0 0.0 0.0 1.0
130 1 -12.838433857627285 15.334999819767056 0.0 0.0 0.0 1.0
131 1 0.837091803768331 -17.27968857045939 0.0 0.0 0.0 1.0
132 1 -9.275681778106165 8.842753683808162 0.0 0.0 0.0 1.0
133 1 5.305223496845425 6.015283504196461 0.0 0.0 0.0 1.0
134 1 -6.172242337107157 1.0587478391400822 0.0 0.0 0.0 1.0
135 1 22.81100959618589 16.395358476692493 0.0 0.0 0.0 1.0
136 1 -23.719778116618613 8.508977835517726 0.0 0.0 0.0 1.0
137 1 -24.640499188835697 -20.263433919186035 0.0 0.0 0.0 1.0
138 1 -23.171310630620372 -10.738280961827213 0.0 0.0 0.0 1.0
139 1 -6.951126328251544 -3.154523851573366 0.0 0.0 0.0 1.0
140 1 -7.429245390172078 4.480378728966844 0.0 0.0 0.0 1.0
141 1 -6.2612967773522605 17.285738054990325 0.0 0.0 0.0 1.0
142 1 22.92909364876848 -8.197603568346455 0.0 0.0 0.0 1.0
143 1 12.491902494877557 5.642741545617909 0.0 0.0 0.0 1.0
144 1 -23.72902260238205 -12.917493091543397 0.0 0.0 0.0 1.0
145 1 -19.052992325260647 14.621839745747181 0.0 0.0 0.0 1.0
146 1 -18.891987429919244 -21.141954186208757 0.0 0.0 0.0 1.0
147 1 22.017143933291656 19.2155969913426 0.0 0.0 0.0 1.0
148 1 9.329865077432032 -1.4388049895851616 0.0 0.0 0.0 1.0
149 1 6.847622421495593 -9.754476308076681 0.0 0.0 0.0 1.0
150 1 -0.6438434119507548 -11.778310201688896 0.0 0.0 0.0 1.0
151 1 19.098258997752765 13.987706866635932 0.0 0.0 0.0 1.0
152 1 -7.120955749297636 10.613852744980484 0.0 0.0 0.0 1.0
153 1 -10.814843843924788 20.569320539229345 0.0 0.0 0.0 1.0
154 1 20.075235013502443 -0.8405946741312071 0.0 0.0 0.0 1.0
155 1 -1.4834588248595786 -11.252477560045271 0.0 0.0 0.0 1.0
156 1 -3.9343639998127777 -10.724912921957669 0.0 0.0 0.0 1.0
157 1 10.041255043812427 14.531102927590851 0.0 0.0 0.0 1.0
158 1 7.84050109865543 -16.798980268452816 0.0 0.0 0.0 1.0
159 1 7.610639629786917 -2.8569486222628626 0.0 0.0 0.0 1.0
160 1 24.810332184851987 -23.579139884288423 0.0 0.0 0.0 1.0
161 1 0.19702830741579191 12.277206518977891 0.0 0.0 0.0 1.0
162 1 17.75411956571618 -0.5505898611135152 0.0 0.0 0.0 1.0
163 1 13.542245322123222 -5.619455037418518 0.0 0.0 0.0 1.0
164 1 17.185703392946074 3.333606920036136 0.0 0.0 0.0 1.0
165 1 -4.510158626803907 -0.917437159196659 0.0 0.0 0.0 1.0
166 1 -10.447837252749354 6.939341256712961 0.0 0.0 0.0 1.0
167 1 17.81547994556076 24.021015822338967 0.0 0.0 0.0 1.0
168 1 15.239225084703406 4.425741515257574 0.0 0.0 0.0 1.0
169 1 2.564298246247681 10.256986747278951 0.0 0.0 0.0 1.0
170 1 6.822839440383266 9.97332749028483 0.0 0.0 0.0 1.0
171 1 -1.68915949978501 0.25681722128949147 0.0 0.0 0.0 1.0
172 1 4.168686371043336 4.7300639812715914 0.0 0.0 0.0 1.0
173 1 -16.218811444260815 14.13549789784308 0.0 0.0 0.0 1.0
174 1 -16.122024020377026 10.588360945297886 0.0 0.0 0.0 1.0
175 1 6.611778012424079 -7.194130852611551 0.0 0.0 0.0 1.0
176 1 4.161141091406893 13.219580968332245 0.0 0.0 0.0 1.0
177 1 1.079792676800274 0.3598174210445215 0.0 0.0 0.0 1.0
178 1 3.0797274803290087 -5.841722745701016 0.0 0.0 0.0 1.0
179 1 3.979823764729307 15.49292769555661 0.0 0.0 0.0 1.0
180 1 0.0939553967638247 1.0901215492874705 0.0 0.0 0.0 1.0
181 1 10.877614326970644 20.557753579844892 0.0 0.0 0.0 1.0
182 1 21.38175340035476 -5.636667650924959 0.0 0.0 0.0 1.0
183 1 -1.4763573800705707 14.897520271664725 0.0 0.0 0.0 1.0
184 1 5.043843418400652 -6.209243671775372 0.0 0.0 0.0 1.0
185 1 6.768750529695737 -10.771576308278085 0.0 0.0 0.0 1.0
186 1 3.996656487686579 10.982728742194304 0.0 0.0 0.0 1.0
187 1 12.125382813090617 14.36465764528451 0.0 0.0 0.0 1.0
188 1 2.4952987756052742 9.055570100099125 0.0 0.0 0.0 1.0
189 1 -13.836133704135566 1.1445828733799353 0.0 0.0 0.0 1.0
190 1 17.004147657782937 -21.076831597712292 0.0 0.0 0.0 1.0
191 1 15.20239269407783 -2.451142042812755 0.0 0.0 0.0 1.0
192 1 9.297997103477947 11.60954206449663 0.0 0.0 0.0 1.0
193 1 -14.034641193740482 -22.97612709915398 0.0 0.0 0.0 1.0
194 1 19.27522515382818 -12.853265261321544 0.0 0.0 0.0 1.0
195 1 4.9925471239322015 10.31710913213761 0.0 0.0 0.0 1.0
196 1 -23.499270789290705 6.814361185035555 0.0 0.0 0.0 1.0
197 1 -22.335068620745595 13.48526052604737 0.0 0.0 0.0 1.0
198 1 -11.806658210402144 12.93941406735074 0.0 0.0 0.0 1.0
199 1 5.88523538177904 -16.871519573123855 0.0 0.0 0.0 1.0
200 1 12.706529568410886 11.999930833985836 0.0 0.0 0.0 1.0
201 1 11.598180374688418 0.5320212355725396 0.0 0.0 0.0 1.0
202 1 18.53090174638777 -1.053488168560186 0.0 0.0 0.0 1.0
203 1 7.924051630265524 5.772969556763929 0.0 0.0 0.0 1.0
204 1 22.48581829622747 9.28446524747433 0.0 0.0 0.0 1.0
205 1 8.496729413477553 -3.4343914696952353 0.0 0.0 0.0 1.0
206 1 -11.163195777741326 1.737770640592828 0.0 0.0 0.0 1.0
207 1 -9.003619467344205 -12.344543713319 0.0 0.0 0.0 1.0
208 1 24.044853300831925 -16.408379277448216 0.0 0.0 0.0 1.0
209 1 15.695694129406412 1.3766877364503785 0.0 0.0 0.0 1.0
210 1 -18.410706710941188 -18.896493546999544 0.0 0.0 0.0 1.0
211 1 -8.084929026198601 -16.408408472313027 0.0 0.0 0.0 1.0
212 1 -1.2757970210824254 -15.90264985456455 0.0 0.0 0.0 1.0
213 1 -5.504652405207501 -9.924387325619138 0.0 0.0 0.0 1.0
214 1 -5.615938924412717 24.85547349976145 0.0 0.0 0.0 1.0
215 1 -11.448068317981514 -22.616563956120977 0.0 0.0 0.0 1.0
216 1 21.076388875779408 -10.331162281010918 0.0 0.0 0.0 1.0
217 1 16.712556384996304 -4.427592505051386 0.0 0.0 0.0 1.0
218 1 11.534380776287975 -1.8725473940076078 0.0 0.0 0.0 1.0
219 1 8.253384454419503 -7.420499804032609 0.0 0.0 0.0 1.0
220 1 20.88267256035204 -17.743130761364256 0.0 0.0 0.0 1.0
221 1 -7.544486256537368 6.450213970391101 0.0 0.0 0.0 1.0
222 1 -4.114203202238876 3.2863615679039064 0.0 0.0 0.0 1.0
223 1 18.822107373163135 21.853341453300764 0.0 0.0 0.0 1.0
224 1 24.490691643205295 -5.314625767589032 0.0 0.0 0.0 1.0
225 1 -4.33224278718151 -23.46620332329475 0.0 0.0 0.0 1.0
226 1 24.096508935732018 23.31387211582745 0.0 0.0 0.0 1.0
227 1 -0.27120203222350625 3.1146075515662304 0.0 0.0 0.0 1.0
228 1 -13.206039529222235 17.91196591261938 0.0 0.0 0.0 1.0
229 1 21.366075512641316 -19.914967556772478 0.0 0.0 0.0 1.0
230 1 -8.607150172870487 -22.788337256958705 0.0 0.0 0.0 1.0
231 1 -17.610786832577414 22.93426511741454 0.0 0.0 0.0 1.0
232 1 12.626846695536429 2.3361753487446 0.0 0.0 0.0 1.0
233 1 -24.023194506949086 -7.756638894894397 0.0 0.0 0.0 1.0
234 1 -23.789901442743666 17.54496635023596 0.0 0.0 0.0 1.0
235 1 19.71015612798933 -13.97092111742601 0.0 0.0 0.0 1.0
236 1 11.234180845973256 22.7430791511198 0.0 0.0 0.0 1.0
237 1 -8.85544838581071 -6.977249642666873 0.0 0.0 0.0 1.0
238 1 23.65067830991302 24.523964388610175 0.0 0.0 0.0 1.0
239 1 -15.693066794869548 7.773399038352544 0.0 0.0 0.0 1.0
240 1 15.672588456735078 -10.947209061768648 0.0 0.0 0.0 1.0
241 1 -15.583806060019768 -14.67253894000774 0.0 0.0 0.0 1.0
242 1 18.578757802335865 24.917504395035337 0.0 0.0 0.0 1.0
243 1 0.5451690212327733 14.71426288190193 0.0 0.0 0.0 1.0
244 1 6.548556710169901 -21.155623135300033 0.0 0.0 0.0 1.0
245 1 -11.381542012187301 -1.8177647803277353 0.0 0.0 0.0 1.0
246 1 -7.614411137087835 19.193013124093596 0.0 0.0 0.0 1.0
247 1 3.4993152104285556 -3.0762604776114806 0.0 0.0 0.0 1.0
248 1 -19.58081842493682 4.361268766969605 0.0 0.0 0.0 1.0
249 1 23.07127027862998 0.771807748253238 0.0 0.0 0.0 1.0
250 1 -12.51867092579796 -16.528803047076664 0.0 0.0 0.0 1.0
251 1 -24.053643254833208 4.354722428426356 0.0 0.0 0.0 1.0
252 1 -22.156053301071438 15.116691890458469 0.0 0.0 0.0 1.0
253 1 21.64601422093328 -11.704813290875299 0.0 0.0 0.0 1.0
254 1 22.702522564667227 13.748740305154406 0.0 0.0 0.0 1.0
255 1 14.422073512692911 15.924354882512901 0.0 0.0 0.0 1.0
256 1 -5.173841036390055 -20.185251367911782 0.0 0.0 0.0 1.0
257 1 -9.454412978611726 12.24278347105004 0.0 0.0 0.0 1.0
258 1 -14.58101537244208 -24.265862084705596 0.0 0.0 0.0 1.0
259 1 -20.416710894896433 -15.56403227762152 0.0 0.0 0.0 1.0
260 1 -13.385567385688946 11.54560479274101 0.0 0.0 0.0 1.0
261 1 13.011734556850712 -13.375227156490155 0.0 0.0 0.0 1.0
262 1 18.789118402788965 15.041949203268672 0.0 0.0 0.0 1.0
263 1 14.650706864214762 2.0018299510700395 0.0 0.0 0.0 1.0
264 1 23.747123387071106 -14.100417600778343 0.0 0.0 0.0 1.0
265 1 0.6117069864267748 -5.282140971283688 0.0 0.0 0.0 1.0
266 1 16.099216872415667 11.844277763397045 0.0 0.0 0.0 1.0
267 1 -20.119437063378385 18.739967095343765 0.0 0.0 0.0 1.0
268 1 -17.444896694439777 2.4783614893487957 0.0 0.0 0.0 1.0
269 1 19.16471784126366 -15.79585370087932 0.0 0.0 0.0 1.0
270 1 -21.15654938844932 0.5366902186536358 0.0 0.0 0.0 1.0
271 1 -18.76351175550549 -8.222776087963101 0.0 0.0 0.0 1.0
272 1 11.493773137164794 -11.496065231177138 0.0 0.0 0.0 1.0
273 1 -16.42663203069857 3.7914669026401953 0.0 0.0 0.0 1.0
274 1 14.994278766484783 20.701091727540714 0.0 0.0 0.0 1.0
275 1 21.536433982030573 17.609041676812943 0.0 0.0 0.0 1.0
276 1 -7.932575168792983 12.761469332807792 0.0 0.0 0.0 1.0
277 1 1.2640554874850487 -18.84612233100531 0.0 0.0 0.0 1.0
278 1 -24.98867681151569 11.583983425598689 0.0 0.0 0.0 1.0
279 1 -17.98489985280493 -7.839527591273445 0.0 0.0 0.0 1.0
280 1 14.768530326041649 -20.845417301940945 0.0 0.0 0.0 1.0
281 1 -14.003200555800033 23.572833180630653 0.0 0.0 0.0 1.0
282 1 14.675429069067057 0.2924874730923115 0.0 0.0 0.0 1.0
283 1 -15.033401021781579 23.030478047423017 0.0 0.0 0.0 1.0
284 1 -16.432364363848745 -16.901797070839287 0.0 0.0 0.0 1.0
285 1 -9.703982685205743 1.61552726493262 0.0 0.0 0.0 1.0
286 1 -12.780145283607997 -6.8657151228654065 0.0 0.0 0.0 1.0
287 1 7.81097605504862 -15.438143235726415 0.0 0.0 0.0 1.0
288 1 15.841214543095042 -21.994614284869822 0.0 0.0 0.0 1.0
289 1 15.229597523474922 17.192566800266157 0.0 0.0 0.0 1.0
290 1 -6.871245551611516 12.302097141902173 0.0 0.0 0.0 1.0
291 1 3.3861066046209096 18.584791199216397 0.0 0.0 0.0 1.0
292 1 10.302732626320676 -4.007434376794087 0.0 0.0 0.0 1.0
293 1 18.26983118064826 12.552831529185596 0.0 0.0 0.0 1.0
294 1 10.841347145492414 14.277213661917742 0.0 0.0 0.0 1.0
295 1 10.176276595765195 0.44948407003323965 0.0 0.0 0.0 1.0
296 1 10.04265289751934 15.54986754599394 0.0 0.0 0.0 1.0
297 1 16.97156591213558 7.986815608753375 0.0 0.0 0.0 1.0
298 1 7.3456648866004315 -1.0409864891529104 0.0 0.0 0.0 1.0
299 1 18.137841992890102 8.905031996882954 0.0 0.0 0.0 1.0
300 1 6.634153794894637 14.410425066636613 0.0 0.0 0.0 1.0
301 1 -14.829287071753082 -7.9291156369239175 0.0 0.0 0.0 1.0
302 1 -24.467209290241758 -13.505512400090497 0.0 0.0 0.0 1.0
303 1 3.60368347620949 -8.347126791389897 0.0 0.0 0.0 1.0
304 1 -0.041350489405267865 -15.936207959348858 0.0 0.0 0.0 1.0
305 1 -19.02118555507657 23.610036030005418 0.0 0.0 0.0 1.0
306 1 -7.197581522766555 -19.508560224271697 0.0 0.0 0.0 1.0
307 1 6.739758825352517 -15.59842767524735 0.0 0.0 0.0 1.0
308 1 -4.0578193107321034 -1.7173939079302443 0.0 0.0 0.0 1.0
309 1 5.71898326733109 20.295943710828567 0.0 0.0 0.0 1.0
310 1 19.44286054850231 6.7275021946563704 0.0 0.0 0.0 1.0
311 1 7.9215980900976035 8.025505111773214 0.0 0.0 0.0 1.0
312 1 20.507570402342154 10.933840477218844 0.0 0.0 0.0 1.0
313 1 13.21440824015123 -9.49564792804366 0.0 0.0 0.0 1.0
314 1 -19.532907339787986 -4.605742878576365 0.0 0.0 0.0 1.0
315 1 1.4526949359588315 18.209115181271734 0.0 0.0 0.0 1.0
316 1 -3.5150511833414626 16.980263184953373 0.0 0.0 0.0 1.0
317 1 2.0261357033209144 -6.986644942887427 0.0 0.0 0.0 1.0
318 1 5.79532862194872 21.64657461778925 0.0 0.0 0.0 1.0
319 2 -25.0 -25.0 -1.0 0.0 0.0 1.0
320 2 -24.0 -25.0 -1.0 0.0 0.0 1.0
321 2 -23.0 -25.0 -1.0 0.0 0.0 1.0
322 2 -22.0 -25.0 -1.0 0.0 0.0 1.0
323 2 -21.0 -25.0 -1.0 0.0 0.0 1.0
324 2 -20.0 -25.0 -1.0 0.0 0.0 1.0
325 2 -19.0 -25.0 -1.0 0.0 0.0 1.0
326 2 -18.0 -25.0 -1.0 0.0 0.0 1.0
327 2 -17.0 -25.0 -1.0 0.0 0.0 1.0
328 2 -16.0 -25.0 -1.0 0.0 0.0 1.0
329 2 -15.0 -25.0 -1.0 0.0 0.0 1.0
330 2 -14.0 -25.0 -1.0 0.0 0.0 1.0
331 2 -13.0 -25.0 -1.0 0.0 0.0 1.0
332 2 -12.0 -25.0 -1.0 0.0 0.0 1.0
333 2 -11.0 -25.0 -1.0 0.0 0.0 1.0
334 2 -10.0 -25.0 -1.0 0.0 0.0 1.0
335 2 -9.0 -25.0 -1.0 0.0 0.0 1.0
336 2 -8.0 -25.0 -1.0 0.0 0.0 1.0
337 2 -7.0 -25.0 -1.0 0.0 0.0 1.0
338 2 -6.0 -25.0 -1.0 0.0 0.0 1.0
339 2 -5.0 -25.0 -1.0 0.0 0.0 1.0
340 2 -4.0 -25.0 -1.0 0.0 0.0 1.0
341 2 -3.0 -25.0 -1.0 0.0 0.0 1.0
342 2 -2.0 -25.0 -1.0 0.0 0.0 1.0
343 2 -1.0 -25.0 -1.0 0.0 0.0 1.0
344 2 0.0 -25.0 -1.0 0.0 0.0 1.0
345 2 1.0 -25.0 -1.0 0.0 0.0 1.0
346 2 2.0 -25.0 -1.0 0.0 0.0 1.0
347 2 3.0 -25.0 -1.0 0.0 0.0 1.0
348 2 4.0 -25.0 -1.0 0.0 0.0 1.0
349 2 5.0 -25.0 -1.0 0.0 0.0 1.0
350 2 6.0 -25.0 -1.0 0.0 0.0 1.0
351 2 7.0 -25.0 -1.0 0.0 0.0 1.0
352 2 8.0 -25.0 -1.0 0.0 0.0 1.0
353 2 9.0 -25.0 -1.0 0.0 0.0 1.0
354 2 10.0 -25.0 -1.0 0.0 0.0 1.0
355 2 11.0 -25.0 -1.0 0.0 0.0 1.0
356 2 12.0 -25.0 -1.0 0.0 0.0 1.0
357 2 13.0 -25.0 -1.0 0.0 0.0 1.0
358 2 14.0 -25.0 -1.0 0.0 0.0 1.0
359 2 15.0 -25.0 -1.0 0.0 0.0 1.0
360 2 16.0 -25.0 -1.0 0.0 0.0 1.0
361 2 17.0 -25.0 -1.0 0.0 0.0 1.0
362 2 18.0 -25.0 -1.0 0.0 0.0 1.0
363 2 19.0 -25.0 -1.0 0.0 0.0 1.0
364 2 20.0 -25.0 -1.0 0.0 0.0 1.0
365 2 21.0 -25.0 -1.0 0.0 0.0 1.0
366 2 22.0 -25.0 -1.0 0.0 0.0 1.0
367 2 23.0 -25.0 -1.0 0.0 0.0 1.0
368 2 24.0 -25.0 -1.0 0.0 0.0 1.0
369 2 -25.0 -24.0 -1.0 0.0 0.0 1.0
370 2 -24.0 -24.0 -1.0 0.0 0.0 1.0
371 2 -23.0 -24.0 -1.0 0.0 0.0 1.0
372 2 -22.0 -24.0 -1.0 0.0 0.0 1.0
373 2 -21.0 -24.0 -1.0 0.0 0.0 1.0
374 2 -20.0 -24.0 -1.0 0.0 0.0 1.0
375 2 -19.0 -24.0 -1.0 0.0 0.0 1.0
376 2 -18.0 -24.0 -1.0 0.0 0.0 1.0
377 2 -17.0 -24.0 -1.0 0.0 0.0 1.0
378 2 -16.0 -24.0 -1.0 0.0 0.0 1.0
379 2 -15.0 -24.0 -1.0 0.0 0.0 1.0
380 2 -14.0 -24.0 -1.0 0.0 0.0 1.0
381 2 -13.0 -24.0 -1.0 0.0 0.0 1.0
382 2 -12.0 -24.0 -1.0 0.0 0.0 1.0
383 2 -11.0 -24.0 -1.0 0.0 0.0 1.0
384 2 -10.0 -24.0 -1.0 0.0 0.0 1.0
385 2 -9.0 -24.0 -1.0 0.0 0.0 1.0
386 2 -8.0 -24.0 -1.0 0.0 0.0 1.0
387 2 -7.0 -24.0 -1.0 0.0 0.0 1.0
388 2 -6.0 -24.0 -1.0 0.0 0.0 1.0
389 2 -5.0 -24.0 -1.0 0.0 0.0 1.0
390 2 -4.0 -24.0 -1.0 0.0 0.0 1.0
391 2 -3.0 -24.0 -1.0 0.0 0.0 1.0
392 2 -2.0 -24.0 -1.0 0.0 0.0 1.0
393 2 -1.0 -24.0 -1.0 0.0 0.0 1.0
394 2 0.0 -24.0 -1.0 0.0 0.0 1.0
395 2 1.0 -24.0 -1.0 0.0 0.0 1.0
396 2 2.0 -24.0 -1.0 0.0 0.0 1.0
397 2 3.0 -24.0 -1.0 0.0 0.0 1.0
398 2 4.0 -24.0 -1.0 0.0 0.0 1.0
399 2 5.0 -24.0 -1.0 0.0 0.0 1.0
400 2 6.0 -24.0 -1.0 0.0 0.0 1.0
401 2 7.0 -24.0 -1.0 0.0 0.0 1.0
402 2 8.0 -24.0 -1.0 0.0 0.0 1.0
403 2 9.0 -24.0 -1.0 0.0 0.0 1.0
404 2 10.0 -24.0 -1.0 0.0 0.0 1.0
405 2 11.0 -24.0 -1.0 0.0 0.0 1.0
406 2 12.0 -24.0 -1.0 0.0 0.0 1.0
407 2 13.0 -24.0 -1.0 0.0 0.0 1.0
408 2 14.0 -24.0 -1.0 0.0 0.0 1.0
409 2 15.0 -24.0 -1.0 0.0 0.0 1.0
410 2 16.0 -24.0 -1.0 0.0 0.0 1.0
411 2 17.0 -24.0 -1.0 0.0 0.0 1.0
412 2 18.0 -24.0 -1.0 0.0 0.0 1.0
413 2 19.0 -24.0 -1.0 0.0 0.0 1.0
414 2 20.0 -24.0 -1.0 0.0 0.0 1.0
415 2 21.0 -24.0 -1.0 0.0 0.0 1.0
416 2 22.0 -24.0 -1.0 0.0 0.0 1.0
417 2 23.0 -24.0 -1.0 0.0 0.0 1.0
418 2 24.0 -24.0 -1.0 0.0 0.0 1.0
419 2 -25.0 -23.0 -1.0 0.0 0.0 1.0
420 2 -24.0 -23.0 -1.0 0.0 0.0 1.0
421 2 -23.0 -23.0 -1.0 0.0 0.0 1.0
422 2 -22.0 -23.0 -1.0 0.0 0.0 1.0
423 2 -21.0 -23.0 -1.0 0.0 0.0 1.0
424 2 -20.0 -23.0 -1.0 0.0 0.0 1.0
425 2 -19.0 -23.0 -1.0 0.0 0.0 1.0
426 2 -18.0 -23.0 -1.0 0.0 0.0 1.0
427 2 -17.0 -23.0 -1.0 0.0 0.0 1.0
428 2 -16.0 -23.0 -1.0 0.0 0.0 1.0
429 2 -15.0 -23.0 -1.0 0.0 0.0 1.0
430 2 -14.0 -23.0 -1.0 0.0 0.0 1.0
431 2 -13.0 -23.0 -1.0 0.0 0.0 1.0
432 2 -12.0 -23.0 -1.0 0.0 0.0 1.0
433 2 -11.0 -23.0 -1.0 0.0 0.0 1.0
434 2 -10.0 -23.0 -1.0 0.0 0.0 1.0
435 2 -9.0 -23.0 -1.0 0.0 0.0 1.0
436 2 -8.0 -23.0 -1.0 0.0 0.0 1.0
437 2 -7.0 -23.0 -1.0 0.0 0.0 1.0
438 2 -6.0 -23.0 -1.0 0.0 0.0 1.0
439 2 -5.0 -23.0 -1.0 0.0 0.0 1.0
440 2 -4.0 -23.0 -1.0 0.0 0.0 1.0
441 2 -3.0 -23.0 -1.0 0.0 0.0 1.0
442 2 -2.0 -23.0 -1.0 0.0 0.0 1.0
443 2 -1.0 -23.0 -1.0 0.0 0.0 1.0
444 2 0.0 -23.0 -1.0 0.0 0.0 1.0
445 2 1.0 -23.0 -1.0 0.0 0.0 1.0
446 2 2.0 -23.0 -1.0 0.0 0.0 1.0
447 2 3.0 -23.0 -1.0 0.0 0.0 1.0
448 2 4.0 -23.0 -1.0 0.0 0.0 1.0
449 2 5.0 -23.0 -1.0 0.0 0.0 1.0
450 2 6.0 -23.0 -1.0 0.0 0.0 1.0
451 2 7.0 -23.0 -1.0 0.0 0.0 1.0
452 2 8.0 -23.0 -1.0 0.0 0.0 1.0
453 2 9.0 -23.0 -1.0 0.0 0.0 1.0
454 2 10.0 -23.0 -1.0 0.0 0.0 1.0
455 2 11.0 -23.0 -1.0 0.0 0.0 1.0
456 2 12.0 -23.0 -1.0 0.0 0.0 1.0
457 2 13.0 -23.0 -1.0 0.0 0.0 1.0
458 2 14.0 -23.0 -1.0 0.0 0.0 1.0
459 2 15.0 -23.0 -1.0 0.0 0.0 1.0
460 2 16.0 -23.0 -1.0 0.0 0.0 1.0
461 2 17.0 -23.0 -1.0 0.0 0.0 1.0
462 2 18.0 -23.0 -1.0 0.0 0.0 1.0
463 2 19.0 -23.0 -1.0 0.0 0.0 1.0
464 2 20.0 -23.0 -1.0 0.0 0.0 1.0
465 2 21.0 -23.0 -1.0 0.0 0.0 1.0
466 2 22.0 -23.0 -1.0 0.0 0.0 1.0
467 2 23.0 -23.0 -1.0 0.0 0.0 1.0
468 2 24.0 -23.0 -1.0 0.0 0.0 1.0
469 2 -25.0 -22.0 -1.0 0.0 0.0 1.0
470 2 -24.0 -22.0 -1.0 0.0 0.0 1.0
471 2 -23.0 -22.0 -1.0 0.0 0.0 1.0
472 2 -22.0 -22.0 -1.0 0.0 0.0 1.0
473 2 -21.0 -22.0 -1.0 0.0 0.0 1.0
474 2 -20.0 -22.0 -1.0 0.0 0.0 1.0
475 2 -19.0 -22.0 -1.0 0.0 0.0 1.0
476 2 -18.0 -22.0 -1.0 0.0 0.0 1.0
477 2 -17.0 -22.0 -1.0 0.0 0.0 1.0
478 2 -16.0 -22.0 -1.0 0.0 0.0 1.0
479 2 -15.0 -22.0 -1.0 0.0 0.0 1.0
480 2 -14.0 -22.0 -1.0 0.0 0.0 1.0
481 2 -13.0 -22.0 -1.0 0.0 0.0 1.0
482 2 -12.0 -22.0 -1.0 0.0 0.0 1.0
483 2 -11.0 -22.0 -1.0 0.0 0.0 1.0
484 2 -10.0 -22.0 -1.0 0.0 0.0 1.0
485 2 -9.0 -22.0 -1.0 0.0 0.0 1.0
486 2 -8.0 -22.0 -1.0 0.0 0.0 1.0
487 2 -7.0 -22.0 -1.0 0.0 0.0 1.0
488 2 -6.0 -22.0 -1.0 0.0 0.0 1.0
489 2 -5.0 -22.0 -1.0 0.0 0.0 1.0
490 2 -4.0 -22.0 -1.0 0.0 0.0 1.0
491 2 -3.0 -22.0 -1.0 0.0 0.0 1.0
492 2 -2.0 -22.0 -1.0 0.0 0.0 1.0
493 2 -1.0 -22.0 -1.0 0.0 0.0 1.0
494 2 0.0 -22.0 -1.0 0.0 0.0 1.0
495 2 1.0 -22.0 -1.0 0.0 0.0 1.0
496 2 2.0 -22.0 -1.0 0.0 0.0 1.0
497 2 3.0 -22.0 -1.0 0.0 0.0 1.0
498 2 4.0 -22.0 -1.0 0.0 0.0 1.0
499 2 5.0 -22.0 -1.0 0.0 0.0 1.0
500 2 6.0 -22.0 -1.0 0.0 0.0 1.0
501 2 7.0 -22.0 -1.0 0.0 0.0 1.0
502 2 8.0 -22.0 -1.0 0.0 0.0 1.0
503 2 9.0 -22.0 -1.0 0.0 0.0 1.0
504 2 10.0 -22.0 -1.0 0.0 0.0 1.0
505 2 11.0 -22.0 -1.0 0.0 0.0 1.0
506 2 12.0 -22.0 -1.0 0.0 0.0 1.0
507 2 13.0 -22.0 -1.0 0.0 0.0 1.0
508 2 14.0 -22.0 -1.0 0.0 0.0 1.0
509 2 15.0 -22.0 -1.0 0.0 0.0 1.0
510 2 16.0 -22.0 -1.0 0.0 0.0 1.0
511 2 17.0 -22.0 -1.0 0.0 0.0 1.0
512 2 18.0 -22.0 -1.0 0.0 0.0 1.0
513 2 19.0 -22.0 -1.0 0.0 0.0 1.0
514 2 20.0 -22.0 -1.0 0.0 0.0 1.0
515 2 21.0 -22.0 -1.0 0.0 0.0 1.0
516 2 22.0 -22.0 -1.0 0.0 0.0 1.0
517 2 23.0 -22.0 -1.0 0.0 0.0 1.0
518 2 24.0 -22.0 -1.0 0.0 0.0 1.0
519 2 -25.0 -21.0 -1.0 0.0 0.0 1.0
520 2 -24.0 -21.0 -1.0 0.0 0.0 1.0
521 2 -23.0 -21.0 -1.0 0.0 0.0 1.0
522 2 -22.0 -21.0 -1.0 0.0 0.0 1.0
523 2 -21.0 -21.0 -1.0 0.0 0.0 1.0
524 2 -20.0 -21.0 -1.0 0.0 0.0 1.0
525 2 -19.0 -21.0 -1.0 0.0 0.0 1.0
526 2 -18.0 -21.0 -1.0 0.0 0.0 1.0
527 2 -17.0 -21.0 -1.0 0.0 0.0 1.0
528 2 -16.0 -21.0 -1.0 0.0 0.0 1.0
529 2 -15.0 -21.0 -1.0 0.0 0.0 1.0
530 2 -14.0 -21.0 -1.0 0.0 0.0 1.0
531 2 -13.0 -21.0 -1.0 0.0 0.0 1.0
532 2 -12.0 -21.0 -1.0 0.0 0.0 1.0
533 2 -11.0 -21.0 -1.0 0.0 0.0 1.0
534 2 -10.0 -21.0 -1.0 0.0 0.0 1.0
535 2 -9.0 -21.0 -1.0 0.0 0.0 1.0
536 2 -8.0 -21.0 -1.0 0.0 0.0 1.0
537 2 -7.0 -21.0 -1.0 0.0 0.0 1.0
538 2 -6.0 -21.0 -1.0 0.0 0.0 1.0
539 2 -5.0 -21.0 -1.0 0.0 0.0 1.0
540 2 -4.0 -21.0 -1.0 0.0 0.0 1.0
541 2 -3.0 -21.0 -1.0 0.0 0.0 1.0
542 2 -2.0 -21.0 -1.0 0.0 0.0 1.0
543 2 -1.0 -21.0 -1.0 0.0 0.0 1.0
544 2 0.0 -21.0 -1.0 0.0 0.0 1.0
545 2 1.0 -21.0 -1.0 0.0 0.0 1.0
546 2 2.0 -21.0 -1.0 0.0 0.0 1.0
547 2 3.0 -21.0 -1.0 0.0 0.0 1.0
548 2 4.0 -21.0 -1.0 0.0 0.0 1.0
549 2 5.0 -21.0 -1.0 0.0 0.0 1.0
550 2 6.0 -21.0 -1.0 0.0 0.0 1.0
551 2 7.0 -21.0 -1.0 0.0 0.0 1.0
552 2 8.0 -21.0 -1.0 0.0 0.0 1.0
553 2 9.0 -21.0 -1.0 0.0 0.0 1.0
554 2 10.0 -21.0 -1.0 0.0 0.0 1.0
555 2 11.0 -21.0 -1.0 0.0 0.0 1.0
556 2 12.0 -21.0 -1.0 0.0 0.0 1.0
557 2 13.0 -21.0 -1.0 0.0 0.0 1.0
558 2 14.0 -21.0 -1.0 0.0 0.0 1.0
559 2 15.0 -21.0 -1.0 0.0 0.0 1.0
560 2 16.0 -21.0 -1.0 0.0 0.0 1.0
561 2 17.0 -21.0 -1.0 0.0 0.0 1.0
562 2 18.0 -21.0 -1.0 0.0 0.0 1.0
563 2 19.0 -21.0 -1.0 0.0 0.0 1.0
564 2 20.0 -21.0 -1.0 0.0 0.0 1.0
565 2 21.0 -21.0 -1.0 0.0 0.0 1.0
566 2 22.0 -21.0 -1.0 0.0 0.0 1.0
567 2 23.0 -21.0 -1.0 0.0 0.0 1.0
568 2 24.0 -21.0 -1.0 0.0 0.0 1.0
569 2 -25.0 -20.0 -1.0 0.0 0.0 1.0
570 2 -24.0 -20.0 -1.0 0.0 0.0 1.0
571 2 -23.0 -20.0 -1.0 0.0 0.0 1.0
572 2 -22.0 -20.0 -1.0 0.0 0.0 1.0
573 2 -21.0 -20.0 -1.0 0.0 0.0 1.0
574 2 -20.0 -20.0 -1.0 0.0 0.0 1.0
575 2 -19.0 -20.0 -1.0 0.0 0.0 1.0
576 2 -18.0 -20.0 -1.0 0.0 0.0 1.0
577 2 -17.0 -20.0 -1.0 0.0 0.0 1.0
578 2 -16.0 -20.0 -1.0 0.0 0.0 1.0
579 2 -15.0 -20.0 -1.0 0.0 0.0 1.0
580 2 -14.0 -20.0 -1.0 0.0 0.0 1.0
581 2 -13.0 -20.0 -1.0 0.0 0.0 1.0
582 2 -12.0 -20.0 -1.0 0.0 0.0 1.0
583 2 -11.0 -20.0 -1.0 0.0 0.0 1.0
584 2 -10.0 -20.0 -1.0 0.0 0.0 1.0
585 2 -9.0 -20.0 -1.0 0.0 0.0 1.0
586 2 -8.0 -20.0 -1.0 0.0 0.0 1.0
587 2 -7.0 -20.0 -1.0 0.0 0.0 1.0
588 2 -6.0 -20.0 -1.0 0.0 0.0 1.0
589 2 -5.0 -20.0 -1.0 0.0 0.0 1.0
590 2 -4.0 -20.0 -1.0 0.0 0.0 1.0
591 2 -3.0 -20.0 -1.0 0.0 0.0 1.0
592 2 -2.0 -20.0 -1.0 0.0 0.0 1.0
593 2 -1.0 -20.0 -1.0 0.0 0.0 1.0
594 2 0.0 -20.0 -1.0 0.0 0.0 1.0
595 2 1.0 -20.0 -1.0 0.0 0.0 1.0
596 2 2.0 -20.0 -1.0 0.0 0.0 1.0
597 2 3.0 -20.0 -1.0 0.0 0.0 1.0
598 2 4.0 -20.0 -1.0 0.0 0.0 1.0
599 2 5.0 -20.0 -1.0 0.0 0.0 1.0
600 2 6.0 -20.0 -1.0 0.0 0.0 1.0
601 2 7.0 -20.0 -1.0 0.0 0.0 1.0
602 2 8.0 -20.0 -1.0 0.0 0.0 1.0
603 2 9.0 -20.0 -1.0 0.0 0.0 1.0
604 2 10.0 -20.0 -1.0 0.0 0.0 1.0
605 2 11.0 -20.0 -1.0 0.0 0.0 1.0
606 2 12.0 -20.0 -1.0 0.0 0.0 1.0
607 2 13.0 -20.0 -1.0 0.0 0.0 1.0
608 2 14.0 -20.0 -1.0 0.0 0.0 1.0
609 2 15.0 -20.0 -1.0 0.0 0.0 1.0
610 2 16.0 -20.0 -1.0 0.0 0.0 1.0
611 2 17.0 -20.0 -1.0 0.0 0.0 1.0
612 2 18.0 -20.0 -1.0 0.0 0.0 1.0
613 2 19.0 -20.0 -1.0 0.0 0.0 1.0
614 2 20.0 -20.0 -1.0 0.0 0.0 1.0
615 2 21.0 -20.0 -1.0 0.0 0.0 1.0
616 2 22.0 -20.0 -1.0 0.0 0.0 1.0
617 2 23.0 -20.0 -1.0 0.0 0.0 1.0
618 2 24.0 -20.0 -1.0 0.0 0.0 1.0
619 2 -25.0 -19.0 -1.0 0.0 0.0 1.0
620 2 -24.0 -19.0 -1.0 0.0 0.0 1.0
621 2 -23.0 -19.0 -1.0 0.0 0.0 1.0
622 2 -22.0 -19.0 -1.0 0.0 0.0 1.0
623 2 -21.0 -19.0 -1.0 0.0 0.0 1.0
624 2 -20.0 -19.0 -1.0 0.0 0.0 1.0
625 2 -19.0 -19.0 -1.0 0.0 0.0 1.0
626 2 -18.0 -19.0 -1.0 0.0 0.0 1.0
627 2 -17.0 -19.0 -1.0 0.0 0.0 1.0
628 2 -16.0 -19.0 -1.0 0.0 0.0 1.0
629 2 -15.0 -19.0 -1.0 0.0 0.0 1.0
630 2 -14.0 -19.0 -1.0 0.0 0.0 1.0
631 2 -13.0 -19.0 -1.0 0.0 0.0 1.0
632 2 -12.0 -19.0 -1.0 0.0 0.0 1.0