LAMMPS data file from restart file: timestep = 0, procs = 1

5465 atoms

2 atom types

-25.50000000000e+00 25.50000000000e+00 xlo xhi
-25.50000000000e+00 25.50000000000e+00 ylo yhi
-10.00000000000e+01 10.00000000000e+01 zlo zhi

Masses

1 1.0
2 1.0

Atoms

1 1 16.142540023016352 -20.34745711684964 0.0 0.0 0.0 1.0
2 1 4.529724259475916 -23.621590549423715 0.0 0.0 0.0 1.0
3 1 18.49143165691224 -19.47237451929457 0.0 0.0 0.0 1.0
4 1 14.462502065339393 -7.499524904204247 0.0 0.0 0.0 1.0
5 1 7.792703988894289 16.477040412319752 0.0 0.0 0.0 1.0
6 1 -24.97438229606823 13.754325596119479 0.0 0.0 0.0 1.0
7 1 -18.220074668141876 5.6351584100707015 0.0 0.0 0.0 1.0
8 1 9.997956866235974 -8.896731229518455 0.0 0.0 0.0 1.0
9 1 8.414912568906509 9.94554255043191 0.0 0.0 0.0 1.0
10 1 -16.635622952160723 -6.505089424794825 0.0 0.0 0.0 1.0
11 1 -24.3598993947655 -11.614346629078925 0.0 0.0 0.0 1.0
12 1 -8.70143488333282 -23.94094332541201 0.0 0.0 0.0 1.0
13 1 -12.414328644787142 14.901461606554903 0.0 0.0 0.0 1.0
14 1 -3.207247265401808 -17.47665984648745 0.0 0.0 0.0 1.0
15 1 21.90889709175015 -20.44471697491592 0.0 0.0 0.0 1.0
16 1 24.263297220089733 -18.333168660887928 0.0 0.0 0.0 1.0
17 1 15.772496176231186 -12.354038743543832 0.0 0.0 0.0 1.0
18 1 16.49810332044465 10.923128703529002 0.0 0.0 0.0 1.0
19 1 21.65545198500302 -8.76097984587365 0.0 0.0 0.0 1.0
20 1 9.042396850596525 -19.096755061624705 0.0 0.0 0.0 1.0
21 1 6.590808713033354 2.320144705520587 0.0 0.0 0.0 1.0
22 1 13.80213053801807 -15.621168495911808 0.0 0.0 0.0 1.0
23 1 -3.6384336049765373 -6.447644881517867 0.0 0.0 0.0 1.0
24 1 20.22702997294484 22.97432542383848 0.0 0.0 0.0 1.0
25 1 -24.736293033244237 7.785323449835097 0.0 0.0 0.0 1.0
26 1 11.95881574348406 -1.1194926492973885 0.0 0.0 0.0 1.0
27 1 19.23072957426671 -6.284809691671999 0.0 0.0 0.0 1.0
28 1 17.95972961066051 0.014241726205625582 0.0 0.0 0.0 1.0
29 1 5.543217571935472 24.305748557160022 0.0 0.0 0.0 1.0
30 1 5.341128593632671 6.935170819845602 0.0 0.0 0.0 1.0
31 1 -4.7653874822747895 -4.791586352716319 0.0 0.0 0.0 1.0
32 1 11.225895086850137 -20.921808197758196 0.0 0.0 0.0 1.0
33 1 -20.410665047638627 7.211247298003556 0.0 0.0 0.0 1.0
34 1 -21.627716429456974 4.24720261690959 0.0 0.0 0.0 1.0
35 1 -16.095608654636578 16.943429244116004 0.0 0.0 0.0 1.0
36 1 11.156077917887721 5.808106996167169 0.0 0.0 0.0 1.0
37 1 21.72384662637493 10.607348000148285 0.0 0.0 0.0 1.0
38 1 -14.239669581538994 -16.443921751905133 0.0 0.0 0.0 1.0
39 1 -16.403386264961668 9.364101691018107 0.0 0.0 0.0 1.0
40 1 -19.248392852172497 -12.519760818846247 0.0 0.0 0.0 1.0
41 1 -9.45861675498872 15.480355761214078 0.0 0.0 0.0 1.0
42 1 -13.74696077543503 8.712951484785073 0.0 0.0 0.0 1.0
43 1 20.17660972743444 16.94659033847981 0.0 0.0 0.0 1.0
44 1 -8.151231859600433 -0.2788462321485561 0.0 0.0 0.0 1.0
45 1 15.617119820453034 -24.295499253645286 0.0 0.0 0.0 1.0
46 1 -1.5889447698642876 -6.283237011440935 0.0 0.0 0.0 1.0
47 1 2.918262122364464 -22.86101303164505 0.0 0.0 0.0 1.0
48 1 -21.749620802229654 -1.063246169630677 0.0 0.0 0.0 1.0
49 1 -22.243215381904758 12.898763642809058 0.0 0.0 0.0 1.0
50 1 -1.3384213039095272 -3.1765062821273737 0.0 0.0 0.0 1.0
51 1 21.2032129334342 23.717670510621566 0.0 0.0 0.0 1.0
52 1 6.560894462766591 -9.403400253440003 0.0 0.0 0.0 1.0
53 1 -22.05144745997779 -14.766394493530493 0.0 0.0 0.0 1.0
54 1 -21.850027181011512 -18.69078750918559 0.0 0.0 0.0 1.0
55 1 -15.488925035957285 8.0824087123775 0.0 0.0 0.0 1.0
56 1 -1.195330884229719 -0.9017419056162481 0.0 0.0 0.0 1.0
57 1 -9.558375535037472 9.74659565299531 0.0 0.0 0.0 1.0
58 1 20.222411508494815 0.1527009934265564 0.0 0.0 0.0 1.0
59 1 15.639396431175435 4.066264693530236 0.0 0.0 0.0 1.0
60 1 6.775404551889817 5.130215879562112 0.0 0.0 0.0 1.0
61 1 12.441706844861358 -16.108048914204886 0.0 0.0 0.0 1.0
62 1 24.237390241449404 24.38714073378444 0.0 0.0 0.0 1.0
63 1 5.746239530171099 -24.052259353037492 0.0 0.0 0.0 1.0
64 1 17.481076505807557 1.5512715797521004 0.0 0.0 0.0 1.0
65 1 7.826020389464311 -13.74282443121621 0.0 0.0 0.0 1.0
66 1 6.062919512936936 9.998994061109897 0.0 0.0 0.0 1.0
67 1 19.679986820367155 -15.341699721575319 0.0 0.0 0.0 1.0
68 1 -18.812846809870955 -22.608604410443995 0.0 0.0 0.0 1.0
69 1 2.3420648787400467 -21.742814613980894 0.0 0.0 0.0 1.0
70 1 14.726418850460824 -19.035864279366805 0.0 0.0 0.0 1.0
71 1 -12.169380878772484 24.09400317471445 0.0 0.0 0.0 1.0
72 1 -24.626667811615867 16.861673393477908 0.0 0.0 0.0 1.0
73 1 12.112197139461486 -15.164383538883847 0.0 0.0 0.0 1.0
74 1 14.26562771110548 -4.929788393741969 0.0 0.0 0.0 1.0
75 1 -8.200149598652263 23.5752084364281 0.0 0.0 0.0 1.0
76 1 16.11747762011622 1.1461880855219526 0.0 0.0 0.0 1.0
77 1 -0.6110921164963976 -15.861971209115294 0.0 0.0 0.0 1.0
78 1 -17.95816497342042 17.42348253408128 0.0 0.0 0.0 1.0
79 1 -23.227033074812525 4.167563953316623 0.0 0.0 0.0 1.0
80 1 -23.940403891501365 -2.5554868153584422 0.0 0.0 0.0 1.0
81 1 -4.389105483075088 -19.954311196904467 0.0 0.0 0.0 1.0
82 1 0.16768283523314764 19.26055699625951 0.0 0.0 0.0 1.0
83 1 9.170761860573997 19.595334557171043 0.0 0.0 0.0 1.0
84 1 -12.837888611377856 0.5064533053009512 0.0 0.0 0.0 1.0
85 1 21.84432947417826 2.580686326747344 0.0 0.0 0.0 1.0
86 1 -2.5801166176498036 -17.035442645948056 0.0 0.0 0.0 1.0
87 1 -18.52093347442451 3.2998847527311526 0.0 0.0 0.0 1.0
88 1 -2.037910802427966 -20.858811577796622 0.0 0.0 0.0 1.0
89 1 -11.341444314094684 12.91834673514952 0.0 0.0 0.0 1.0
90 1 -7.8776254069304095 -17.562132697511643 0.0 0.0 0.0 1.0
91 1 -24.36372537843374 -0.5061102269615247 0.0 0.0 0.0 1.0
92 1 -24.580766342999343 0.6349987229218854 0.0 0.0 0.0 1.0
93 1 -14.512681875597794 1.3472612811376337 0.0 0.0 0.0 1.0
94 1 -14.781738117633619 7.161266937185829 0.0 0.0 0.0 1.0
95 1 -2.9737539612618065 -14.426797968333682 0.0 0.0 0.0 1.0
96 1 -12.085181219672208 -1.4861185923622244 0.0 0.0 0.0 1.0
97 1 -7.655579626573957 5.939210324762449 0.0 0.0 0.0 1.0
98 1 10.342407076893132 23.496486345163525 0.0 0.0 0.0 1.0
99 1 -8.452982121994385 -6.471255385425174 0.0 0.0 0.0 1.0
100 1 20.784384565143213 -4.642484058640555 0.0 0.0 0.0 1.0
101 1 21.05922259447837 -16.27803365727536 0.0 0.0 0.0 1.0
102 1 8.099599421796029 11.371986750475848 0.0 0.0 0.0 1.0
103 1 15.555977199860841 10.947029227933832 0.0 0.0 0.0 1.0
104 1 23.862359300225336 7.075199111960927 0.0 0.0 0.0 1.0
105 1 -9.952926991341322 8.115899001602365 0.0 0.0 0.0 1.0
106 1 6.889740473397076 -0.03153234070111921 0.0 0.0 0.0 1.0
107 1 18.04174636575265 5.267503657689282 0.0 0.0 0.0 1.0
108 1 16.498195456700536 3.3892431144549526 0.0 0.0 0.0 1.0
109 1 18.042739310993248 9.256376009855657 0.0 0.0 0.0 1.0
110 1 2.1412634098987198 12.11996079946352 0.0 0.0 0.0 1.0
111 1 22.797890265430297 -10.41848536293063 0.0 0.0 0.0 1.0
112 1 -4.748668490744588 1.1690054628745123 0.0 0.0 0.0 1.0
113 1 -13.545861479563753 12.116626237332682 0.0 0.0 0.0 1.0
114 1 10.432920759429003 19.983935944215006 0.0 0.0 0.0 1.0
115 1 -7.339826916709143 -16.197762238384072 0.0 0.0 0.0 1.0
116 1 -6.072752592172087 6.383009127148139 0.0 0.0 0.0 1.0
117 1 15.09395154222576 -5.989784726690495 0.0 0.0 0.0 1.0
118 1 24.270965909938994 3.7970136525553926 0.0 0.0 0.0 1.0
119 1 16.795085385340812 17.46880194524303 0.0 0.0 0.0 1.0
120 1 -5.333166394432489 24.27440634810656 0.0 0.0 0.0 1.0
121 1 -7.611631477525616 -14.681592077868277 0.0 0.0 0.0 1.0
122 1 -18.57726538491339 23.42526456054442 0.0 0.0 0.0 1.0
123 1 -7.432068530737695 -0.6820013825988411 0.0 0.0 0.0 1.0
124 1 10.881010566913687 -12.402203526947385 0.0 0.0 0.0 1.0
125 1 12.862659590466286 -0.7980582197888424 0.0 0.0 0.0 1.0
126 1 24.49829964366286 -21.876996880772793 0.0 0.0 0.0 1.0
127 1 4.0792372681282885 -12.225121758157092 0.0 0.0 0.0 1.0
128 1 -24.382443175678514 4.45542983355352 0.0 0.0 0.0 1.0
129 1 4.116805030316044 20.035774019445647 0.0 0.0 0.0 1.0
130 1 -11.781800834687333 -21.929130278338192 0.0 0.0 0.0 1.0
131 1 0.8759698904803948 -0.04388481673261424 0.0 0.0 0.0 1.0
132 1 -8.505313021773219 -15.788611076587244 0.0 0.0 0.0 1.0
133 1 -12.17335807812523 -22.793305930114656 0.0 0.0 0.0 1.0
134 1 2.452285567698574 17.155264274462226 0.0 0.0 0.0 1.0
135 1 -22.4055415054016 19.20985825478749 0.0 0.0 0.0 1.0
136 1 16.036144726125052 -21.299167888889276 0.0 0.0 0.0 1.0
137 1 -3.3252762559403948 -18.738431704764995 0.0 0.0 0.0 1.0
138 1 -10.627798617680378 -24.32441093110945 0.0 0.0 0.0 1.0
139 1 19.621253005124842 8.693463308850475 0.0 0.0 0.0 1.0
140 1 0.3436963917541931 -17.002286956711373 0.0 0.0 0.0 1.0
141 1 3.0017616022423184 -10.456829583279598 0.0 0.0 0.0 1.0
142 1 18.00469995815022 16.582912425154753 0.0 0.0 0.0 1.0
143 1 -7.5280187352607335 -24.596142219884054 0.0 0.0 0.0 1.0
144 1 14.666575409233786 -13.696037808664679 0.0 0.0 0.0 1.0
145 1 -18.922776270643354 15.217135535001788 0.0 0.0 0.0 1.0
146 1 2.339084240249985 -4.6926528014424775 0.0 0.0 0.0 1.0
147 1 5.455491261173844 -17.50920473684091 0.0 0.0 0.0 1.0
148 1 -15.569805649484863 24.328378712507792 0.0 0.0 0.0 1.0
149 1 4.606772555897127 12.573092974497804 0.0 0.0 0.0 1.0
150 1 8.307846078088474 -3.673503419096086 0.0 0.0 0.0 1.0
151 1 7.804791031606712 -11.280110053248633 0.0 0.0 0.0 1.0
152 1 23.773850229534204 -5.259336609358662 0.0 0.0 0.0 1.0
153 1 -15.620360943036554 -16.33828908999459 0.0 0.0 0.0 1.0
154 1 11.791133698649752 6.899216652744627 0.0 0.0 0.0 1.0
155 1 13.716097655307045 23.805753746474615 0.0 0.0 0.0 1.0
156 1 -7.297526521624164 -10.965541182941207 0.0 0.0 0.0 1.0
157 1 -14.741561698547656 -20.33523430942728 0.0 0.0 0.0 1.0
158 1 16.87418384808837 -1.038749136851063 0.0 0.0 0.0 1.0
159 1 -14.369068411462937 -7.437434246934949 0.0 0.0 0.0 1.0
160 1 -11.250030234221969 23.697764895025784 0.0 0.0 0.0 1.0
161 1 -21.880886577856245 -8.101479769356125 0.0 0.0 0.0 1.0
162 1 8.524844183369659 -20.501455191658387 0.0 0.0 0.0 1.0
163 1 -22.62518265877257 -21.075433174944603 0.0 0.0 0.0 1.0
164 1 17.301070584085124 -20.559612138332795 0.0 0.0 0.0 1.0
165 1 -8.921156641619945 16.27389288393705 0.0 0.0 0.0 1.0
166 1 6.614475520855343 12.913399987450319 0.0 0.0 0.0 1.0
167 1 -7.293696267612642 -3.092267920402385 0.0 0.0 0.0 1.0
168 1 -10.703262717860001 22.090195789751554 0.0 0.0 0.0 1.0
169 1 12.215235749913631 4.85805653770327 0.0 0.0 0.0 1.0
170 1 21.2394064893181 -0.994272089318553 0.0 0.0 0.0 1.0
171 1 19.398344892860834 -0.7845355701643975 0.0 0.0 0.0 1.0
172 1 1.6971019286875766 -15.838280783523812 0.0 0.0 0.0 1.0
173 1 -11.279276696927637 8.856730682440002 0.0 0.0 0.0 1.0
174 1 15.29402643478062 -22.00858472926754 0.0 0.0 0.0 1.0
175 1 4.411013577733936 6.549109219324794 0.0 0.0 0.0 1.0
176 1 -4.402900862875235 -8.626187183660765 0.0 0.0 0.0 1.0
177 1 24.37445021962788 -6.466760755930135 0.0 0.0 0.0 1.0
178 1 23.74133548667256 -8.418549184943775 0.0 0.0 0.0 1.0
179 1 -3.8284293953129165 -12.44574168232932 0.0 0.0 0.0 1.0
180 1 10.123162316735744 21.803936927792037 0.0 0.0 0.0 1.0
181 1 -3.7076428724846195 17.850028023851152 0.0 0.0 0.0 1.0
182 1 -10.9686394069263 7.3353979050708915 0.0 0.0 0.0 1.0
183 1 -23.89011716068019 -9.805602710446887 0.0 0.0 0.0 1.0
184 1 11.743755213789328 -9.116404420372959 0.0 0.0 0.0 1.0
185 1 -12.978081604022396 6.626135799422855 0.0 0.0 0.0 1.0
186 1 0.31214878970767757 -24.186335983469682 0.0 0.0 0.0 1.0
187 1 -22.961019968471273 18.113785396799102 0.0 0.0 0.0 1.0
188 1 -16.26491677306977 15.683103404868781 0.0 0.0 0.0 1.0
189 1 4.587915151481315 2.207047972231628 0.0 0.0 0.0 1.0
190 1 -8.847582793151165 -11.48242516875666 0.0 0.0 0.0 1.0
191 1 23.03598966180992 -3.6840113892891218 0.0 0.0 0.0 1.0
192 1 22.46640778750254 15.291929161525921 0.0 0.0 0.0 1.0
193 1 -20.208725252538546 -3.60778846754069 0.0 0.0 0.0 1.0
194 1 -8.93202113893038 -14.685474235097356 0.0 0.0 0.0 1.0
195 1 5.626891377410498 -1.657353181649384 0.0 0.0 0.0 1.0
196 1 17.99533287402577 -23.86179319943123 0.0 0.0 0.0 1.0
197 1 -3.0082766162190637 11.92368098743679 0.0 0.0 0.0 1.0
198 1 -7.204072333846039 0.8878030568509985 0.0 0.0 0.0 1.0
199 1 4.750591345475584 15.78316573142596 0.0 0.0 0.0 1.0
200 1 6.154376412822504 -16.25101823871715 0.0 0.0 0.0 1.0
201 1 12.794594837302057 11.490941631948331 0.0 0.0 0.0 1.0
202 1 -13.562547353788462 -18.429003333593798 0.0 0.0 0.0 1.0
203 1 21.207526288157894 -15.11131883898032 0.0 0.0 0.0 1.0
204 1 15.04250811304749 -23.56700054001808 0.0 0.0 0.0 1.0
205 1 3.194091505801129 18.605332512984 0.0 0.0 0.0 1.0
206 1 -6.519660049627646 -17.598219467409375 0.0 0.0 0.0 1.0
207 1 12.872744624305255 -17.3771220752077 0.0 0.0 0.0 1.0
208 1 23.693039800634303 20.23045167790535 0.0 0.0 0.0 1.0
209 1 21.71410767703513 -23.114084141487524 0.0 0.0 0.0 1.0
210 1 3.672461292518559 21.82378335837941 0.0 0.0 0.0 1.0
211 1 19.30560441481586 -13.484797090440093 0.0 0.0 0.0 1.0
212 1 1.2433523430356637 5.645866804672384 0.0 0.0 0.0 1.0
213 1 13.949678293161774 -24.62381250925583 0.0 0.0 0.0 1.0
214 1 -6.421778997907563 16.439880930134073 0.0 0.0 0.0 1.0
215 1 -15.646203408418113 -13.602749421883015 0.0 0.0 0.0 1.0
216 1 14.043127616800717 -10.26599744114558 0.0 0.0 0.0 1.0
217 1 8.499135759383627 6.2665594434070435 0.0 0.0 0.0 1.0
218 1 2.0525506539971587 5.4574972287115 0.0 0.0 0.0 1.0
219 1 24.51035376946912 -0.918330447487687 0.0 0.0 0.0 1.0
220 1 -5.325761374978622 -21.30545470996747 0.0 0.0 0.0 1.0
221 1 -8.641432224793132 3.2370369769024627 0.0 0.0 0.0 1.0
222 1 11.616969320480585 20.0945217521504 0.0 0.0 0.0 1.0
223 1 0.1385040968575666 -23.11899822725711 0.0 0.0 0.0 1.0
224 1 -23.935812475875608 12.013165219117901 0.0 0.0 0.0 1.0
225 1 18.649473096073557 10.592598666750938 0.0 0.0 0.0 1.0
226 1 -4.3326833539939 -6.025212591118446 0.0 0.0 0.0 1.0
227 1 -12.7552616340938 -4.224458057298676 0.0 0.0 0.0 1.0
228 1 -14.524500037406906 19.613091836652778 0.0 0.0 0.0 1.0
229 1 2.0066419820649983 -10.247774866340103 0.0 0.0 0.0 1.0
230 1 -16.0101734960374 -3.401918472317199 0.0 0.0 0.0 1.0
231 1 16.885078592519612 -6.4359888829420555 0.0 0.0 0.0 1.0
232 1 17.257965165516318 18.441992084193842 0.0 0.0 0.0 1.0
233 1 -16.23521357660218 -19.822110685207498 0.0 0.0 0.0 1.0
234 1 12.85937324268297 6.669296951109111 0.0 0.0 0.0 1.0
235 1 6.074049945572508 -21.5984855972042 0.0 0.0 0.0 1.0
236 1 -20.906117581574435 13.193929220266305 0.0 0.0 0.0 1.0
237 1 0.9689476971475166 24.26584181578741 0.0 0.0 0.0 1.0
238 1 -8.5793238977442 0.4830652259154036 0.0 0.0 0.0 1.0
239 1 12.267646447925578 10.657923056902042 0.0 0.0 0.0 1.0
240 1 20.09486850721356 -6.708022229064692 0.0 0.0 0.0 1.0
241 1 -16.830909108059146 -21.747786995995998 0.0 0.0 0.0 1.0
242 1 -1.2200469852286275 -21.391685127234076 0.0 0.0 0.0 1.0
243 1 -17.316039714758336 11.260593290946076 0.0 0.0 0.0 1.0
244 1 3.716586460405054 5.625128231646059 0.0 0.0 0.0 1.0
245 1 -1.435656252280765 7.2241682347864185 0.0 0.0 0.0 1.0
246 1 -3.687695098789227 -10.324898087563922 0.0 0.0 0.0 1.0
247 1 -16.69820497379247 -14.566129840994785 0.0 0.0 0.0 1.0
248 1 -16.560373524323463 -0.12489009492122705 0.0 0.0 0.0 1.0
249 1 -16.869412956079316 5.541737912905475 0.0 0.0 0.0 1.0
250 1 -12.70919807931667 3.4019773312909436 0.0 0.0 0.0 1.0
251 1 -10.162639006788183 17.298733679936277 0.0 0.0 0.0 1.0
252 1 -10.101142434174537 12.549778175572108 0.0 0.0 0.0 1.0
253 1 -24.496464709339662 -15.036772821773498 0.0 0.0 0.0 1.0
254 1 -12.668584929205256 -16.75448626234627 0.0 0.0 0.0 1.0
255 1 -17.03683335391308 -18.36795772257679 0.0 0.0 0.0 1.0
256 1 22.860622066856713 12.508377488172009 0.0 0.0 0.0 1.0
257 1 11.835400367799458 -22.35691897439827 0.0 0.0 0.0 1.0
258 1 -5.787683125855615 -23.41506665675978 0.0 0.0 0.0 1.0
259 1 -24.1650622286767 18.000362699646146 0.0 0.0 0.0 1.0
260 1 9.604005177457658 -22.55268771546919 0.0 0.0 0.0 1.0
261 1 -4.735365851988423 -22.22015765878296 0.0 0.0 0.0 1.0
262 1 -0.08705661753015193 -10.526646663693 0.0 0.0 0.0 1.0
263 1 7.498871703662765 12.153848364176845 0.0 0.0 0.0 1.0
264 1 -24.35507958139283 5.471408631082035 0.0 0.0 0.0 1.0
265 1 -20.098986472530143 -24.07695719077721 0.0 0.0 0.0 1.0
266 1 -10.384627618868707 5.116499264915614 0.0 0.0 0.0 1.0
267 1 -5.397057325680439 18.675450520096142 0.0 0.0 0.0 1.0
268 1 10.133452130320627 -0.6944780530216228 0.0 0.0 0.0 1.0
269 1 -18.243723087229974 11.360941757318393 0.0 0.0 0.0 1.0
270 1 -18.431242903992775 14.128931772747137 0.0 0.0 0.0 1.0
271 1 -9.006483783878489 -3.544822983271935 0.0 0.0 0.0 1.0
272 1 11.94162675165262 21.58345018737071 0.0 0.0 0.0 1.0
273 1 -4.821732563595411 15.031142802100021 0.0 0.0 0.0 1.0
274 1 17.506133296701726 12.210747073989566 0.0 0.0 0.0 1.0
275 1 5.240844380260434 -9.912140722995716 0.0 0.0 0.0 1.0
276 1 9.6956307246259 15.828388144776994 0.0 0.0 0.0 1.0
277 1 4.92984235699323 8.280755935754968 0.0 0.0 0.0 1.0
278 1 -20.409298954553968 14.542045312223436 0.0 0.0 0.0 1.0
279 1 -8.042587702952247 -22.0187040233084 0.0 0.0 0.0 1.0
280 1 -17.07463648980938 2.113395007631908 0.0 0.0 0.0 1.0
281 1 -21.41947690987499 5.600932818631982 0.0 0.0 0.0 1.0
282 1 -3.2956450438328915 16.680844604259818 0.0 0.0 0.0 1.0
283 1 -6.532781708513536 -3.183717629925443 0.0 0.0 0.0 1.0
284 1 15.03556426167004 -24.813535354649012 0.0 0.0 0.0 1.0
285 1 8.364516062476326 24.93621475906189 0.0 0.0 0.0 1.0
286 1 -18.912761688437485 20.686889236813094 0.0 0.0 0.0 1.0
287 1 -3.4574037165277005 -24.749715940505514 0.0 0.0 0.0 1.0
288 1 -18.311005099922834 -6.125911693031817 0.0 0.0 0.0 1.0
289 1 -10.784482266651397 9.704418922168948 0.0 0.0 0.0 1.0
290 1 -22.18537282303873 20.115316261341434 0.0 0.0 0.0 1.0
291 1 4.374292084703885 -8.614112499045333 0.0 0.0 0.0 1.0
292 1 8.774262251369372 -24.17428898019043 0.0 0.0 0.0 1.0
293 1 7.715524608771872 3.3007913237340247 0.0 0.0 0.0 1.0
294 1 -7.623648945270723 8.266201968309119 0.0 0.0 0.0 1.0
295 1 -0.7201289120371612 -0.19028518416297402 0.0 0.0 0.0 1.0
296 1 -16.016409924351443 2.33342660243747 0.0 0.0 0.0 1.0
297 1 -19.76397560923479 -9.565681104800705 0.0 0.0 0.0 1.0
298 1 -13.922510925705206 -15.450221813706634 0.0 0.0 0.0 1.0
299 1 20.262144990133137 2.5314879789427422 0.0 0.0 0.0 1.0
300 1 -15.002177267934464 -0.0990798773988999 0.0 0.0 0.0 1.0
301 1 -14.007157148288913 14.461116901139178 0.0 0.0 0.0 1.0
302 1 -22.327451416922056 -17.852970490679205 0.0 0.0 0.0 1.0
303 1 -4.286517483358299 6.269788207047068 0.0 0.0 0.0 1.0
304 1 -21.779574992936197 -24.40919837836535 0.0 0.0 0.0 1.0
305 1 -11.396477030228896 -22.68495114742907 0.0 0.0 0.0 1.0
306 1 18.662716496074985 19.244987888247998 0.0 0.0 0.0 1.0
307 1 -4.101719794590458 -24.295690222465765 0.0 0.0 0.0 1.0
308 1 -7.519389053069393 13.276754203117328 0.0 0.0 0.0 1.0
309 1 -18.158124381411046 22.297060866207794 0.0 0.0 0.0 1.0
310 1 -16.31672709906922 -4.951600730031451 0.0 0.0 0.0 1.0
311 1 -9.759102618608 -8.9870690552318 0.0 0.0 0.0 1.0
312 1 17.791005769626103 -15.14725886553357 0.0 0.0 0.0 1.0
313 1 -18.583142033636157 -2.9288637304979055 0.0 0.0 0.0 1.0
314 1 -15.146326997459598 -1.5866625921041368 0.0 0.0 0.0 1.0
315 1 -2.634268876184997 -0.43918312289706307 0.0 0.0 0.0 1.0
316 1 -21.392984030049927 11.631067772783723 0.0 0.0 0.0 1.0
317 1 -2.5014503036035265 0.622326625468201 0.0 0.0 0.0 1.0
318 1 -13.057204591765299 23.568059609480493 0.0 0.0 0.0 1.0
319 1 19.056018421317148 22.071245713055077 0.0 0.0 0.0 1.0
320 1 -12.091128968052251 5.160871688315538 0.0 0.0 0.0 1.0
321 1 -2.2371724487117213 -6.813082635202399 0.0 0.0 0.0 1.0
322 1 -11.799917538666044 1.1417148436157873 0.0 0.0 0.0 1.0
323 1 -4.847654448208473 7.378965848579519 0.0 0.0 0.0 1.0
324 1 19.720119372970636 1.2204719053988349 0.0 0.0 0.0 1.0
325 1 2.036679794035649 -18.45353035473478 0.0 0.0 0.0 1.0
326 1 -3.292416348092658 -22.96128870639651 0.0 0.0 0.0 1.0
327 1 18.8454747763819 11.338770002457167 0.0 0.0 0.0 1.0
328 1 21.093911781930686 -2.1003053805863914 0.0 0.0 0.0 1.0
329 1 23.537424004852546 -2.258885399562189 0.0 0.0 0.0 1.0
330 1 0.14237137491049978 2.753249556803521 0.0 0.0 0.0 1.0
331 1 -1.2807031213287807 -19.61764435026452 0.0 0.0 0.0 1.0
332 1 0.5348242494052755 -9.548089042024376 0.0 0.0 0.0 1.0
333 1 7.137272138117993 14.117482008092338 0.0 0.0 0.0 1.0
334 1 3.0080820543173417 -17.008103462353425 0.0 0.0 0.0 1.0
335 1 -17.58914054460251 11.991394219695081 0.0 0.0 0.0 1.0
336 1 -7.313662125696801 17.624536280642452 0.0 0.0 0.0 1.0
337 1 0.20603153903981308 17.06882275428638 0.0 0.0 0.0 1.0
338 1 10.417077114251896 6.878350827385237 0.0 0.0 0.0 1.0
339 1 18.950166154517028 13.922912240635142 0.0 0.0 0.0 1.0
340 1 -23.391261709581162 -6.2081252948817784 0.0 0.0 0.0 1.0
341 1 -13.738390204566281 21.369087129047394 0.0 0.0 0.0 1.0
342 1 -10.081818655976715 -5.136880673183519 0.0 0.0 0.0 1.0
343 1 0.07183920721800519 -12.33022973842951 0.0 0.0 0.0 1.0
344 1 -16.147964629567745 -18.546491190910878 0.0 0.0 0.0 1.0
345 1 -20.648528100034945 -19.8898140166563 0.0 0.0 0.0 1.0
346 1 -19.144006538337283 19.8327047469042 0.0 0.0 0.0 1.0
347 1 24.517097052335465 -24.762372979856234 0.0 0.0 0.0 1.0
348 1 23.866694676334667 -14.98868354692265 0.0 0.0 0.0 1.0
349 1 0.9865603318952871 -19.553171532728808 0.0 0.0 0.0 1.0
350 1 -17.185644496734646 -11.89342464079608 0.0 0.0 0.0 1.0
351 1 -18.565130654066238 24.399332035498546 0.0 0.0 0.0 1.0
352 1 -15.844557110658098 4.340331573518512 0.0 0.0 0.0 1.0
353 1 9.621190754070255 -8.164885932916338 0.0 0.0 0.0 1.0
354 1 18.083622037421186 -12.152790000710906 0.0 0.0 0.0 1.0
355 1 4.217585206434176 14.208133535655278 0.0 0.0 0.0 1.0
356 1 15.331009915016438 -1.1975277793336687 0.0 0.0 0.0 1.0
357 1 -20.01333273707457 -4.570426263455207 0.0 0.0 0.0 1.0
358 1 -1.475552848562085 -24.89926319532217 0.0 0.0 0.0 1.0
359 1 3.511143345310213 -23.740804244511992 0.0 0.0 0.0 1.0
360 1 -12.422386650329276 -10.028817808547918 0.0 0.0 0.0 1.0
361 1 -22.029297291985422 -9.996019235484265 0.0 0.0 0.0 1.0
362 1 -4.265523020640234 12.601754323404876 0.0 0.0 0.0 1.0
363 1 -21.63090625940972 -6.086252578128924 0.0 0.0 0.0 1.0
364 1 17.402244031704605 20.483062712083303 0.0 0.0 0.0 1.0
365 1 21.8744700101104 14.626275506886458 0.0 0.0 0.0 1.0
366 1 -13.998873965443103 4.708418690552758 0.0 0.0 0.0 1.0
367 1 -3.1883722592200066 -21.00224165766747 0.0 0.0 0.0 1.0
368 1 9.89455334023554 4.396392769698775 0.0 0.0 0.0 1.0
369 1 -13.812964539706318 6.073312741268495 0.0 0.0 0.0 1.0
370 1 18.426052514993707 7.90742357206971 0.0 0.0 0.0 1.0
371 1 -14.102066336340592 22.9166161148624 0.0 0.0 0.0 1.0
372 1 6.778359933014617 -6.951942190600086 0.0 0.0 0.0 1.0
373 1 18.43575073120953 21.3417763918578 0.0 0.0 0.0 1.0
374 1 -9.978522101232834 23.429698225170924 0.0 0.0 0.0 1.0
375 1 20.33221198096951 -19.356585747460176 0.0 0.0 0.0 1.0
376 1 -11.577610238004299 14.920691077465534 0.0 0.0 0.0 1.0
377 1 11.757568695399293 -18.963907093634386 0.0 0.0 0.0 1.0
378 1 -8.551543678360161 -7.5207533140528255 0.0 0.0 0.0 1.0
379 1 13.055820053075855 -12.366616696840167 0.0 0.0 0.0 1.0
380 1 1.7719728923508882 -13.148035445049333 0.0 0.0 0.0 1.0
381 1 -8.094179602139057 18.351089877582474 0.0 0.0 0.0 1.0
382 1 24.242985657087736 -10.837109636715875 0.0 0.0 0.0 1.0
383 1 -24.54211118217769 -14.038016384562269 0.0 0.0 0.0 1.0
384 1 12.867692512590885 -22.889720184014493 0.0 0.0 0.0 1.0
385 1 -14.71200403129046 2.793211649964956 0.0 0.0 0.0 1.0
386 1 23.09757255671058 -16.40231738436082 0.0 0.0 0.0 1.0
387 1 -15.15167038304584 13.049612445140625 0.0 0.0 0.0 1.0
388 1 8.266007651391341 -7.097201656446888 0.0 0.0 0.0 1.0
389 1 -23.37793786673662 20.39141062112403 0.0 0.0 0.0 1.0
390 1 2.0779860886150026 23.839221549647824 0.0 0.0 0.0 1.0
391 1 3.647753904754648 -19.977627560670786 0.0 0.0 0.0 1.0
392 1 -17.753153183525946 1.5702325047982306 0.0 0.0 0.0 1.0
393 1 -14.692451598543354 3.6952826127847516 0.0 0.0 0.0 1.0
394 1 -9.979975631310257 -11.364500094803626 0.0 0.0 0.0 1.0
395 1 22.12714491306447 -22.427540374820648 0.0 0.0 0.0 1.0
396 1 -16.899557939920612 12.642613275996851 0.0 0.0 0.0 1.0
397 1 3.775046837452127 -15.567948739139354 0.0 0.0 0.0 1.0
398 1 -13.820777018671615 -19.225083836515644 0.0 0.0 0.0 1.0
399 1 -8.612543603005708 -18.957625983647347 0.0 0.0 0.0 1.0
400 1 -11.93941153308028 -4.853186113496573 0.0 0.0 0.0 1.0
401 1 -18.718628665264035 -15.161323356110723 0.0 0.0 0.0 1.0
402 1 -11.342963260741667 -23.50907496226756 0.0 0.0 0.0 1.0
403 1 -20.397034923017127 3.5472034069749867 0.0 0.0 0.0 1.0
404 1 17.40857670571971 16.05612850165558 0.0 0.0 0.0 1.0
405 1 9.521369970871504 11.545056764527288 0.0 0.0 0.0 1.0
406 1 -8.985541839774086 4.612537237065421 0.0 0.0 0.0 1.0
407 1 -19.475435195834486 5.731941414503751 0.0 0.0 0.0 1.0
408 1 -10.680889983573172 16.527698693813647 0.0 0.0 0.0 1.0
409 1 2.566454497511895 3.2335309115632107 0.0 0.0 0.0 1.0
410 1 7.484546393609712 -12.563250318414282 0.0 0.0 0.0 1.0
411 1 24.367443081965575 -13.379243917347273 0.0 0.0 0.0 1.0
412 1 -4.801663865820316 5.54419043358147 0.0 0.0 0.0 1.0
413 1 2.9375880097272145 -11.603788023103823 0.0 0.0 0.0 1.0
414 1 19.512960715332703 7.2667395515965225 0.0 0.0 0.0 1.0
415 1 -5.837212690487309 3.2180593674391353 0.0 0.0 0.0 1.0
416 1 7.827072991169345 -5.52568043439145 0.0 0.0 0.0 1.0
417 1 22.184450088300828 9.593065513944204 0.0 0.0 0.0 1.0
418 1 -15.899087708374882 3.336378214200174 0.0 0.0 0.0 1.0
419 1 8.516425713473922 1.5292746216814308 0.0 0.0 0.0 1.0
420 1 -7.955867291559436 19.775009127908767 0.0 0.0 0.0 1.0
421 1 13.435149840758456 12.085424412166482 0.0 0.0 0.0 1.0
422 1 -17.072739411154714 -1.2387422725161095 0.0 0.0 0.0 1.0
423 1 -0.7561627932352479 -1.9439934211606058 0.0 0.0 0.0 1.0
424 1 9.229713002578826 9.387624283661594 0.0 0.0 0.0 1.0
425 1 -19.473958469187053 4.426904206479147 0.0 0.0 0.0 1.0
426 1 -24.909101224682438 -24.715525052881482 0.0 0.0 0.0 1.0
427 1 5.429531688687167 12.597589878833325 0.0 0.0 0.0 1.0
428 1 23.041166116266638 -15.276897290807806 0.0 0.0 0.0 1.0
429 1 -1.6327331185016902 3.127033841690043 0.0 0.0 0.0 1.0
430 1 -22.36271644302999 10.43066146462182 0.0 0.0 0.0 1.0
431 1 17.187093196415994 3.794642630459556 0.0 0.0 0.0 1.0
432 1 -2.9893968296685287 7.2815250266293035 0.0 0.0 0.0 1.0
433 1 4.214591925128534 22.46371395471504 0.0 0.0 0.0 1.0
434 1 0.2347392187306241 -22.142275933940763 0.0 0.0 0.0 1.0
435 1 1.7842986155837401 -14.511933704174263 0.0 0.0 0.0 1.0
436 1 -9.351102114985116 11.595942008471113 0.0 0.0 0.0 1.0
437 1 4.076953673126049 -13.130571615792741 0.0 0.0 0.0 1.0
438 1 5.557731381376861 1.245530288269837 0.0 0.0 0.0 1.0
439 1 -2.4591890369871265 8.314184727009575 0.0 0.0 0.0 1.0
440 1 9.20550205146673 20.603091325171746 0.0 0.0 0.0 1.0
441 1 -12.879210339795383 -4.970205568524921 0.0 0.0 0.0 1.0
442 1 10.029997142626442 -7.199354338065149 0.0 0.0 0.0 1.0
443 1 3.8667803250846333 -3.8874900434273556 0.0 0.0 0.0 1.0
444 1 4.485112040034657 -20.94981331829649 0.0 0.0 0.0 1.0
445 1 16.282289911734658 -3.8559421753070247 0.0 0.0 0.0 1.0
446 1 11.736506413900699 -13.869052371031836 0.0 0.0 0.0 1.0
447 1 21.358101179729786 -17.533382195651082 0.0 0.0 0.0 1.0
448 1 -11.962809519348083 3.674413868731996 0.0 0.0 0.0 1.0
449 1 -4.456319932265995 -3.944954253134153 0.0 0.0 0.0 1.0
450 1 21.011086633184682 8.099930031411105 0.0 0.0 0.0 1.0
451 1 12.003312629736776 -2.469150940202507 0.0 0.0 0.0 1.0
452 1 -12.460839099653203 -15.25660141133957 0.0 0.0 0.0 1.0
453 1 21.098141235486644 6.754217057677025 0.0 0.0 0.0 1.0
454 1 7.925264686218604 -15.30438177054828 0.0 0.0 0.0 1.0
455 1 -12.490067390853355 -12.744762194521787 0.0 0.0 0.0 1.0
456 1 24.309623403582634 9.820920044007742 0.0 0.0 0.0 1.0
457 1 19.696326254908946 -17.707400453888745 0.0 0.0 0.0 1.0
458 1 -13.729489979801384 0.6212910535710066 0.0 0.0 0.0 1.0
459 1 -19.420364859081772 9.225373648601412 0.0 0.0 0.0 1.0
460 1 8.173569643510994 -16.412249801194278 0.0 0.0 0.0 1.0
461 1 15.486611931447044 -8.990279515027293 0.0 0.0 0.0 1.0
462 1 -7.29009617928666 24.890069273280133 0.0 0.0 0.0 1.0
463 1 4.091138469437393 1.250731422360289 0.0 0.0 0.0 1.0
464 1 14.287641133469222 13.257061788405032 0.0 0.0 0.0 1.0
465 1 16.81135109390027 -22.22314847704931 0.0 0.0 0.0 1.0
466 1 0.2711919305324706 12.926192303387722 0.0 0.0 0.0 1.0
467 1 15.009677945701277 -0.0732140395617904 0.0 0.0 0.0 1.0
468 1 -13.314164871212503 -20.65740821269474 0.0 0.0 0.0 1.0
469 1 -5.4109720671638435 10.322871666680868 0.0 0.0 0.0 1.0
470 1 -19.2645322457355 -24.000270637754635 0.0 0.0 0.0 1.0
471 1 -21.32525590658176 -4.66625256185262 0.0 0.0 0.0 1.0
472 1 20.645924259898337 18.802268046891896 0.0 0.0 0.0 1.0
473 1 -14.248326911372084 -0.9117454397205016 0.0 0.0 0.0 1.0
474 1 1.5035132278182495 17.382755166112382 0.0 0.0 0.0 1.0
475 1 -14.750909799820706 5.503214116735261 0.0 0.0 0.0 1.0
476 1 6.557801586273644 15.908436094397587 0.0 0.0 0.0 1.0
477 1 11.573389455902891 -17.94195984115029 0.0 0.0 0.0 1.0
478 1 10.989969392882394 16.395510483212014 0.0 0.0 0.0 1.0
479 1 11.589744086308919 3.805299660813617 0.0 0.0 0.0 1.0
480 1 -9.339279060064792 18.14341219460347 0.0 0.0 0.0 1.0
481 1 10.661362478031478 8.871144026144968 0.0 0.0 0.0 1.0
482 1 -16.934088600421166 4.4747859895602105 0.0 0.0 0.0 1.0
483 1 -0.24890924436245143 5.866488313452017 0.0 0.0 0.0 1.0
484 1 -7.292205182035932 -18.680530420983615 0.0 0.0 0.0 1.0
485 1 17.78750239546951 11.026615505076784 0.0 0.0 0.0 1.0
486 1 -5.383991377742841 12.66988026823038 0.0 0.0 0.0 1.0
487 1 -17.75864978737313 -18.095262278973085 0.0 0.0 0.0 1.0
488 1 -8.077340387667803 -11.251453323815358 0.0 0.0 0.0 1.0
489 1 -3.3744109734875956 -19.729986676731492 0.0 0.0 0.0 1.0
490 1 -10.46363547493418 11.517843884972507 0.0 0.0 0.0 1.0
491 1 22.099886451782794 -14.454113246451733 0.0 0.0 0.0 1.0
492 1 5.490270120086667 19.993080695226936 0.0 0.0 0.0 1.0
493 1 10.870770798989746 10.997650783683952 0.0 0.0 0.0 1.0
494 1 -21.355413451174996 -8.822774390190848 0.0 0.0 0.0 1.0
495 1 -14.202968384684011 17.054488017848414 0.0 0.0 0.0 1.0
496 1 -14.922384784421194 11.363443011401031 0.0 0.0 0.0 1.0
497 1 -23.04481108087804 -14.08534117903179 0.0 0.0 0.0 1.0