LAMMPS data file from restart file: timestep = 0, procs = 1

4192 atoms

2 atom types

-25.50000000000e+00 25.50000000000e+00 xlo xhi
-25.50000000000e+00 25.50000000000e+00 ylo yhi
-10.00000000000e+01 10.00000000000e+01 zlo zhi

Masses

1 1.0
2 1.0

Atoms

1 1 -9.425459948825743 -14.3605758637245 0.0 0.0 0.0 1.0
2 1 20.753396493825385 7.507832937859348 0.0 0.0 0.0 1.0
3 1 23.123148032624634 15.98060364108985 0.0 0.0 0.0 1.0
4 1 -6.816364925860892 -21.215390240869386 0.0 0.0 0.0 1.0
5 1 -2.450412737328321 -23.086860356370455 0.0 0.0 0.0 1.0
6 1 -13.749597857965036 20.413002797729582 0.0 0.0 0.0 1.0
7 1 -14.792907425209457 -2.021605755148098 0.0 0.0 0.0 1.0
8 1 3.1027739003551496 16.301722120130364 0.0 0.0 0.0 1.0
9 1 10.224824119972482 22.23558104807745 0.0 0.0 0.0 1.0
10 1 5.099952112759503 12.172423457941925 0.0 0.0 0.0 1.0
11 1 19.351647890844482 -20.649626399640965 0.0 0.0 0.0 1.0
12 1 24.28519994220268 -15.638715941889842 0.0 0.0 0.0 1.0
13 1 12.90310821364006 -24.924385130897104 0.0 0.0 0.0 1.0
14 1 3.1504085319832065 -7.817255150412379 0.0 0.0 0.0 1.0
15 1 16.587375054926007 3.9906996712042577 0.0 0.0 0.0 1.0
16 1 8.462702833606428 22.272023986122576 0.0 0.0 0.0 1.0
17 1 6.511968716508726 12.395396768017953 0.0 0.0 0.0 1.0
18 1 19.81667757172363 -8.433567189447043 0.0 0.0 0.0 1.0
19 1 20.02009485989482 -15.319404210031346 0.0 0.0 0.0 1.0
20 1 11.595381187953876 -4.755106973079016 0.0 0.0 0.0 1.0
21 1 17.600216591487253 1.8713129032420888 0.0 0.0 0.0 1.0
22 1 -6.590934630817852 0.8726255632810442 0.0 0.0 0.0 1.0
23 1 6.514703141748068 -9.403939015828872 0.0 0.0 0.0 1.0
24 1 -18.3663826020681 -15.812944381851274 0.0 0.0 0.0 1.0
25 1 -3.634177439910996 -3.9609235473808333 0.0 0.0 0.0 1.0
26 1 -16.474635204914676 22.60423234411246 0.0 0.0 0.0 1.0
27 1 14.684505206928023 1.406965741998384 0.0 0.0 0.0 1.0
28 1 -17.50214547551482 -0.5555344860394484 0.0 0.0 0.0 1.0
29 1 -16.63919008900786 9.89811095780125 0.0 0.0 0.0 1.0
30 1 0.42536873386462304 23.098364094764747 0.0 0.0 0.0 1.0
31 1 -14.444480431263107 -1.273659168502462 0.0 0.0 0.0 1.0
32 1 -2.1335257154708636 3.04447827368341 0.0 0.0 0.0 1.0
33 1 -4.125424802565782 -5.777653676770079 0.0 0.0 0.0 1.0
34 1 11.882533882216748 10.413408131177945 0.0 0.0 0.0 1.0
35 1 15.890038830912552 24.026216381277123 0.0 0.0 0.0 1.0
36 1 21.42688028920923 -1.886399604599383 0.0 0.0 0.0 1.0
37 1 7.047985974789448 0.815088728390112 0.0 0.0 0.0 1.0
38 1 -4.488488619680453 11.371632535116568 0.0 0.0 0.0 1.0
39 1 -6.22103085556493 2.736478657499518 0.0 0.0 0.0 1.0
40 1 -18.388063310432692 -5.679177607367276 0.0 0.0 0.0 1.0
41 1 6.383533021809402 -24.99438517743134 0.0 0.0 0.0 1.0
42 1 4.817590887268615 -19.15737066017313 0.0 0.0 0.0 1.0
43 1 -12.547167227654205 23.33504110283983 0.0 0.0 0.0 1.0
44 1 17.727407803567942 12.93673934467158 0.0 0.0 0.0 1.0
45 1 5.276912949256317 22.845155579443713 0.0 0.0 0.0 1.0
46 1 -7.743851630780934 -4.181917478914798 0.0 0.0 0.0 1.0
47 1 2.229608502804954 -19.24090015370113 0.0 0.0 0.0 1.0
48 1 20.941241420777835 -17.662015658101822 0.0 0.0 0.0 1.0
49 1 5.224116417373338 -18.373268986250395 0.0 0.0 0.0 1.0
50 1 23.87555083601763 -23.757233967694543 0.0 0.0 0.0 1.0
51 1 -12.927397692279175 0.2970200510627592 0.0 0.0 0.0 1.0
52 1 -23.30511651463692 2.3996516440280615 0.0 0.0 0.0 1.0
53 1 -24.038384227779357 16.10407195767612 0.0 0.0 0.0 1.0
54 1 -19.545119875788707 8.780928095309477 0.0 0.0 0.0 1.0
55 1 -15.479536997815336 -0.7021651529258826 0.0 0.0 0.0 1.0
56 1 11.846619882112009 23.11903860372663 0.0 0.0 0.0 1.0
57 1 17.545206414003324 -14.463429865397243 0.0 0.0 0.0 1.0
58 1 -3.693896809319604 21.68126837871055 0.0 0.0 0.0 1.0
59 1 9.710943140006712 17.29689881073891 0.0 0.0 0.0 1.0
60 1 21.096046831036517 12.400368327076286 0.0 0.0 0.0 1.0
61 1 -23.739894311514043 -24.562304451030503 0.0 0.0 0.0 1.0
62 1 16.465267676375134 11.808575641644673 0.0 0.0 0.0 1.0
63 1 -5.905531235632633 19.604799143049398 0.0 0.0 0.0 1.0
64 1 -18.23167560469196 -9.846663386666693 0.0 0.0 0.0 1.0
65 1 7.285400813804742 18.941376079269347 0.0 0.0 0.0 1.0
66 1 -15.081776310498164 11.452810330955472 0.0 0.0 0.0 1.0
67 1 -4.090718838219349 12.898713852742446 0.0 0.0 0.0 1.0
68 1 -24.68985454232431 -5.143065219192529 0.0 0.0 0.0 1.0
69 1 -21.835877582437657 -23.759062682767617 0.0 0.0 0.0 1.0
70 1 22.54043771747353 17.867851975014453 0.0 0.0 0.0 1.0
71 1 -1.9737161116820374 -8.744505517958963 0.0 0.0 0.0 1.0
72 1 2.7329510026010624 2.9193504842425995 0.0 0.0 0.0 1.0
73 1 22.102798123729087 11.05796301939413 0.0 0.0 0.0 1.0
74 1 2.981637092944972 -2.8761119559234984 0.0 0.0 0.0 1.0
75 1 22.258233619315412 -11.001005876083125 0.0 0.0 0.0 1.0
76 1 -10.912176595309381 4.503230042377261 0.0 0.0 0.0 1.0
77 1 6.113714299570077 6.292181981423816 0.0 0.0 0.0 1.0
78 1 -0.6025449774952882 13.202976367866547 0.0 0.0 0.0 1.0
79 1 0.9315302433850832 -22.735524262595202 0.0 0.0 0.0 1.0
80 1 -1.3676865848108513 -4.401157765954487 0.0 0.0 0.0 1.0
81 1 -13.9100139013359 11.540758804259127 0.0 0.0 0.0 1.0
82 1 21.98272040777531 2.561834323494722 0.0 0.0 0.0 1.0
83 1 17.45611432468079 18.334794055693898 0.0 0.0 0.0 1.0
84 1 -22.671091680401005 -0.6526221648179558 0.0 0.0 0.0 1.0
85 1 22.28288819368209 9.285663832534958 0.0 0.0 0.0 1.0
86 1 -19.689669744656197 -5.882555181836214 0.0 0.0 0.0 1.0
87 1 6.351665575401057 16.95425836745995 0.0 0.0 0.0 1.0
88 1 -17.56401892499046 -1.5980352417122923 0.0 0.0 0.0 1.0
89 1 -16.259697517965282 -17.418845563638257 0.0 0.0 0.0 1.0
90 1 -18.629495774112115 16.957984201041917 0.0 0.0 0.0 1.0
91 1 -9.322780642164474 20.50275817466529 0.0 0.0 0.0 1.0
92 1 23.717900794615346 1.4360482853710899 0.0 0.0 0.0 1.0
93 1 -10.448257094760793 -1.6091810888009697 0.0 0.0 0.0 1.0
94 1 9.347057650020894 -16.862644964237916 0.0 0.0 0.0 1.0
95 1 3.534641190499972 19.568433431348417 0.0 0.0 0.0 1.0
96 1 5.949152813194381 4.101954870599151 0.0 0.0 0.0 1.0
97 1 13.474087067181387 10.932132098635961 0.0 0.0 0.0 1.0
98 1 6.713876068179648 -7.63301833863564 0.0 0.0 0.0 1.0
99 1 -2.0024399470192584 18.500641019943302 0.0 0.0 0.0 1.0
100 1 -4.935405538116861 -20.596458664856588 0.0 0.0 0.0 1.0
101 1 11.699152019558795 9.420507032157502 0.0 0.0 0.0 1.0
102 1 -8.820640336187779 -6.921230327639776 0.0 0.0 0.0 1.0
103 1 20.85834816315802 5.113657495903585 0.0 0.0 0.0 1.0
104 1 -24.6567666350196 -21.51835258621163 0.0 0.0 0.0 1.0
105 1 8.605449970900061 10.898564139481138 0.0 0.0 0.0 1.0
106 1 14.32361237842477 19.518273440439366 0.0 0.0 0.0 1.0
107 1 -18.01218230250673 0.7956562938289125 0.0 0.0 0.0 1.0
108 1 -9.839372378844008 9.946080030877361 0.0 0.0 0.0 1.0
109 1 -6.670771097873672 -15.936712860631491 0.0 0.0 0.0 1.0
110 1 8.783585739937863 -20.47877109218551 0.0 0.0 0.0 1.0
111 1 -21.837582832382697 17.273745187234866 0.0 0.0 0.0 1.0
112 1 -11.47030490242445 -21.324691400467955 0.0 0.0 0.0 1.0
113 1 0.2023143588993399 4.367105422767224 0.0 0.0 0.0 1.0
114 1 24.867666400537004 -11.21145759944016 0.0 0.0 0.0 1.0
115 1 -7.590227090330188 -9.811871750523016 0.0 0.0 0.0 1.0
116 1 -24.492269065041416 -16.628503284995126 0.0 0.0 0.0 1.0
117 1 -15.204354702816609 -4.342682344172548 0.0 0.0 0.0 1.0
118 1 -20.593625495363614 14.472288481541113 0.0 0.0 0.0 1.0
119 1 -8.379332993120613 -20.477779540798394 0.0 0.0 0.0 1.0
120 1 13.089449313246632 -4.369866382749461 0.0 0.0 0.0 1.0
121 1 2.1878561288768026 -17.52216211032097 0.0 0.0 0.0 1.0
122 1 -8.801287277850044 -22.682485921818063 0.0 0.0 0.0 1.0
123 1 -24.22302889394589 -18.731917510878475 0.0 0.0 0.0 1.0
124 1 -15.264748827395081 22.85474065746024 0.0 0.0 0.0 1.0
125 1 2.770879990118825 -9.306128484014348 0.0 0.0 0.0 1.0
126 1 23.203949418120537 -2.7049130686735374 0.0 0.0 0.0 1.0
127 1 -8.26340715791304 -0.45308100207550694 0.0 0.0 0.0 1.0
128 1 -15.794851162563317 0.36107180321331 0.0 0.0 0.0 1.0
129 1 -2.817091356938967 20.548847602980878 0.0 0.0 0.0 1.0
130 1 2.8761761602001847 21.044453971541863 0.0 0.0 0.0 1.0
131 1 -19.154737060802205 -10.354139850806815 0.0 0.0 0.0 1.0
132 1 -23.16619143993818 -9.27639101384568 0.0 0.0 0.0 1.0
133 1 -18.944021413436307 13.924256559124736 0.0 0.0 0.0 1.0
134 1 9.54010341894601 13.68099308817051 0.0 0.0 0.0 1.0
135 1 -12.379817252391206 -2.8111571074888992 0.0 0.0 0.0 1.0
136 1 -23.721464966282646 -3.946725085674906 0.0 0.0 0.0 1.0
137 1 -18.372370940249226 6.793223657868371 0.0 0.0 0.0 1.0
138 1 -17.681978651311432 13.379370071749662 0.0 0.0 0.0 1.0
139 1 7.239904284842538 -9.182509019825291 0.0 0.0 0.0 1.0
140 1 3.3126692234106194 -15.642705568927406 0.0 0.0 0.0 1.0
141 1 -5.267141633551187 -10.634581425887307 0.0 0.0 0.0 1.0
142 1 2.58577120178985 21.895935910156687 0.0 0.0 0.0 1.0
143 1 7.134154407378809 11.260742181677621 0.0 0.0 0.0 1.0
144 1 -2.156754029011843 21.036259501098414 0.0 0.0 0.0 1.0
145 1 15.183898153420081 -6.430008659216828 0.0 0.0 0.0 1.0
146 1 14.447691943334775 0.45600795746918266 0.0 0.0 0.0 1.0
147 1 -5.5296407304893656 -17.20686650344888 0.0 0.0 0.0 1.0
148 1 -23.58066069387233 -23.537651033871963 0.0 0.0 0.0 1.0
149 1 11.865503813279012 19.269647211124116 0.0 0.0 0.0 1.0
150 1 7.996851074857233 -15.403599011121488 0.0 0.0 0.0 1.0
151 1 -13.638149491852285 1.9547471075228593 0.0 0.0 0.0 1.0
152 1 -6.194354420830351 6.314222848065381 0.0 0.0 0.0 1.0
153 1 5.889442342096906 -11.02100823614845 0.0 0.0 0.0 1.0
154 1 -12.408567843369124 13.190264154737172 0.0 0.0 0.0 1.0
155 1 12.191950182970594 8.544747963396404 0.0 0.0 0.0 1.0
156 1 13.025175923938633 9.159129770774946 0.0 0.0 0.0 1.0
157 1 -12.330801696350363 11.881676003306929 0.0 0.0 0.0 1.0
158 1 -23.888352976098837 -3.200165261717874 0.0 0.0 0.0 1.0
159 1 -13.081696858102326 -13.55807926971369 0.0 0.0 0.0 1.0
160 1 19.513879340278997 -10.372490266055657 0.0 0.0 0.0 1.0
161 1 13.286970544253478 -2.9321339973348515 0.0 0.0 0.0 1.0
162 1 -7.903636617403119 13.084384980267288 0.0 0.0 0.0 1.0
163 1 -7.205965613810694 -18.062436735674375 0.0 0.0 0.0 1.0
164 1 23.282928349636066 2.962732907017852 0.0 0.0 0.0 1.0
165 1 10.796827175086896 23.55240744195713 0.0 0.0 0.0 1.0
166 1 23.743790448339084 7.044293057991602 0.0 0.0 0.0 1.0
167 1 15.415577157674996 3.9120373733140426 0.0 0.0 0.0 1.0
168 1 20.029425113263308 11.700097226036505 0.0 0.0 0.0 1.0
169 1 -4.384582462939662 0.7179261549367055 0.0 0.0 0.0 1.0
170 1 -20.07255563083174 -9.802215107691193 0.0 0.0 0.0 1.0
171 1 -24.456960249382124 -10.133266541116242 0.0 0.0 0.0 1.0
172 1 15.367770562496524 -13.650295643972582 0.0 0.0 0.0 1.0
173 1 21.887512499305572 -11.656451934756284 0.0 0.0 0.0 1.0
174 1 -14.64827260796958 14.29313804717846 0.0 0.0 0.0 1.0
175 1 17.058484141855544 -0.6639028344935696 0.0 0.0 0.0 1.0
176 1 15.71618161845317 -7.496296514852464 0.0 0.0 0.0 1.0
177 1 5.239254097367191 -9.419875831369051 0.0 0.0 0.0 1.0
178 1 22.354803055045465 19.146521365880083 0.0 0.0 0.0 1.0
179 1 -14.698924359986465 -23.98007149876741 0.0 0.0 0.0 1.0
180 1 15.697652825074933 -3.2463669426669775 0.0 0.0 0.0 1.0
181 1 14.59257447651757 13.363994722337921 0.0 0.0 0.0 1.0
182 1 -19.78936595690206 5.016124859586519 0.0 0.0 0.0 1.0
183 1 13.962626990392202 -19.586642832041477 0.0 0.0 0.0 1.0
184 1 8.63689860234431 -18.463093456218417 0.0 0.0 0.0 1.0
185 1 18.078790523202485 11.488729481589914 0.0 0.0 0.0 1.0
186 1 22.947716682655845 6.505182605205416 0.0 0.0 0.0 1.0
187 1 -10.554780516908318 -13.526539289455597 0.0 0.0 0.0 1.0
188 1 -6.1728725292618805 15.854175311924529 0.0 0.0 0.0 1.0
189 1 -24.48462152993567 22.746109571659474 0.0 0.0 0.0 1.0
190 1 23.069397076171562 -23.97327421558526 0.0 0.0 0.0 1.0
191 1 -3.9475655009962267 -20.835318774762655 0.0 0.0 0.0 1.0
192 1 -16.553743315313177 -14.55342836507874 0.0 0.0 0.0 1.0
193 1 5.571333564083947 -1.3772355448851314 0.0 0.0 0.0 1.0
194 1 10.19213007390671 -2.054255599767629 0.0 0.0 0.0 1.0
195 1 1.692613196140723 -16.475056905551384 0.0 0.0 0.0 1.0
196 1 13.337174291634739 -6.266888661491748 0.0 0.0 0.0 1.0
197 1 18.136874792497544 0.7680756895551433 0.0 0.0 0.0 1.0
198 1 24.09953614969315 -5.584793196768345 0.0 0.0 0.0 1.0
199 1 -5.332111718760206 20.755657358408598 0.0 0.0 0.0 1.0
200 1 22.18170968719042 -17.707997153615466 0.0 0.0 0.0 1.0
201 1 -6.679232069016315 -18.63126458147196 0.0 0.0 0.0 1.0
202 1 13.101687878270887 -15.049027453352315 0.0 0.0 0.0 1.0
203 1 -9.225363430643558 -21.05107359744992 0.0 0.0 0.0 1.0
204 1 -16.624967266044056 -16.30273789470545 0.0 0.0 0.0 1.0
205 1 15.233788463652878 -18.847457741363044 0.0 0.0 0.0 1.0
206 1 -19.881094401657712 21.694998687087228 0.0 0.0 0.0 1.0
207 1 4.359997036336267 22.19120762303998 0.0 0.0 0.0 1.0
208 1 23.989656141516406 -12.604078561865823 0.0 0.0 0.0 1.0
209 1 24.844421295436078 19.68938528669723 0.0 0.0 0.0 1.0
210 1 23.08873901837479 21.37287875254176 0.0 0.0 0.0 1.0
211 1 9.996515030827695 7.995851445202298 0.0 0.0 0.0 1.0
212 1 10.763195013912522 12.027905859571305 0.0 0.0 0.0 1.0
213 1 17.060327538149032 -12.334204741664829 0.0 0.0 0.0 1.0
214 1 -17.815996342844166 -23.340988351082338 0.0 0.0 0.0 1.0
215 1 20.075381296392067 17.164736485413975 0.0 0.0 0.0 1.0
216 1 -13.306121026152578 -14.8456480957184 0.0 0.0 0.0 1.0
217 1 -4.768962070955883 19.557689951636874 0.0 0.0 0.0 1.0
218 1 5.143647842081105 8.662171030965922 0.0 0.0 0.0 1.0
219 1 11.73106913381126 -16.56494998827334 0.0 0.0 0.0 1.0
220 1 -3.923106943655924 -16.540726965390533 0.0 0.0 0.0 1.0
221 1 17.462143843389725 15.039960404824662 0.0 0.0 0.0 1.0
222 1 13.373767053640506 18.09295954968188 0.0 0.0 0.0 1.0
223 1 23.849868007566087 10.57998207136567 0.0 0.0 0.0 1.0
224 1 10.743683105164223 -9.046497682751037 0.0 0.0 0.0 1.0
225 1 20.553730839096616 -20.821547911859245 0.0 0.0 0.0 1.0
226 1 6.45345878326853 -5.571114852790593 0.0 0.0 0.0 1.0
227 1 -2.1425336444882817 -4.670193416904084 0.0 0.0 0.0 1.0
228 1 -17.87662636876879 4.577426872487745 0.0 0.0 0.0 1.0
229 1 -17.937529262716566 -21.787483959934022 0.0 0.0 0.0 1.0
230 1 23.64875757991723 -14.627251248241041 0.0 0.0 0.0 1.0
231 1 1.2825712184376954 -0.6044613496339402 0.0 0.0 0.0 1.0
232 1 3.559907577663651 20.42796322518889 0.0 0.0 0.0 1.0
233 1 -3.9007884169508173 -9.567026500353426 0.0 0.0 0.0 1.0
234 1 -12.494149780077235 -22.72166080577464 0.0 0.0 0.0 1.0
235 1 -5.708223066574668 13.04378151449135 0.0 0.0 0.0 1.0
236 1 4.380947220599111 -22.11083712837799 0.0 0.0 0.0 1.0
237 1 -13.225853338251408 18.171196624949175 0.0 0.0 0.0 1.0
238 1 4.015302178116663 15.219219739043062 0.0 0.0 0.0 1.0
239 1 18.44791116194083 16.565243446782816 0.0 0.0 0.0 1.0
240 1 12.381935096285986 24.55971148363509 0.0 0.0 0.0 1.0
241 1 -24.093035080022503 1.8030485062500006 0.0 0.0 0.0 1.0
242 1 -13.786847384527562 -14.029243048377914 0.0 0.0 0.0 1.0
243 1 13.728436003232773 -11.893923081116325 0.0 0.0 0.0 1.0
244 1 14.1941084679924 20.75448405112281 0.0 0.0 0.0 1.0
245 1 -21.136099972712636 -22.639084734357855 0.0 0.0 0.0 1.0
246 1 -12.441573920604426 16.30523001348552 0.0 0.0 0.0 1.0
247 1 -3.914973947385704 -14.296989586925418 0.0 0.0 0.0 1.0
248 1 -22.083588370223552 20.188336942522795 0.0 0.0 0.0 1.0
249 1 -19.747931533112407 -4.925195099116863 0.0 0.0 0.0 1.0
250 1 -12.232815816917403 -23.60544924482802 0.0 0.0 0.0 1.0
251 1 -5.429959657491551 8.935593364182097 0.0 0.0 0.0 1.0
252 1 21.09353548519949 -22.754553660800635 0.0 0.0 0.0 1.0
253 1 9.75181759706399 -19.626769335580956 0.0 0.0 0.0 1.0
254 1 15.414971424441816 -12.641033830729508 0.0 0.0 0.0 1.0
255 1 10.029652240106259 12.959263889031938 0.0 0.0 0.0 1.0
256 1 -3.457336568010323 1.9215545638684048 0.0 0.0 0.0 1.0
257 1 1.2160454479200098 -7.956887601054614 0.0 0.0 0.0 1.0
258 1 -20.053742720464555 -24.535707246871596 0.0 0.0 0.0 1.0
259 1 -14.188439052668183 -5.365124900626057 0.0 0.0 0.0 1.0
260 1 -14.414639658369433 4.371348892254574 0.0 0.0 0.0 1.0
261 1 -18.652639939253675 -21.016302867223672 0.0 0.0 0.0 1.0
262 1 20.186345160542615 9.894230843787902 0.0 0.0 0.0 1.0
263 1 -10.048856942104573 -7.899942837232981 0.0 0.0 0.0 1.0
264 1 14.692649526114792 -8.455421000343964 0.0 0.0 0.0 1.0
265 1 19.915380147603216 -9.303105494933417 0.0 0.0 0.0 1.0
266 1 2.764410345300046 -21.624805571577415 0.0 0.0 0.0 1.0
267 1 4.864910276062702 3.951058632468097 0.0 0.0 0.0 1.0
268 1 16.145511576237062 3.320616405062065 0.0 0.0 0.0 1.0
269 1 21.721179018149314 18.668311270626646 0.0 0.0 0.0 1.0
270 1 -19.992352994039525 -12.803190914080615 0.0 0.0 0.0 1.0
271 1 15.707821827328523 5.319485762114194 0.0 0.0 0.0 1.0
272 1 -15.533712171136816 1.5446061174918029 0.0 0.0 0.0 1.0
273 1 -17.060266821616683 6.363160788584938 0.0 0.0 0.0 1.0
274 1 -12.963645484928128 19.049882079003936 0.0 0.0 0.0 1.0
275 1 24.782889601518555 22.162939275795125 0.0 0.0 0.0 1.0
276 1 21.268585633157436 13.61560006406264 0.0 0.0 0.0 1.0
277 1 -6.680530780721945 18.52808627030202 0.0 0.0 0.0 1.0
278 1 22.462744145229387 -22.41398796412118 0.0 0.0 0.0 1.0
279 1 0.27217698621152664 8.753160058560425 0.0 0.0 0.0 1.0
280 1 -23.926391845853797 19.547672493492122 0.0 0.0 0.0 1.0
281 1 -4.270983830162727 22.642622375695787 0.0 0.0 0.0 1.0
282 1 -8.254984215205553 -16.504430810938835 0.0 0.0 0.0 1.0
283 1 -23.071382611744067 20.68293332722581 0.0 0.0 0.0 1.0
284 1 6.376288819124344 -1.7525054834293883 0.0 0.0 0.0 1.0
285 1 0.6818120556905107 -24.47317702809392 0.0 0.0 0.0 1.0
286 1 19.867108230847656 24.417631955500788 0.0 0.0 0.0 1.0
287 1 -5.5953136350012365 -20.973490938779282 0.0 0.0 0.0 1.0
288 1 -6.483823776561632 -22.246560645587376 0.0 0.0 0.0 1.0
289 1 17.914449471677223 -12.581921638316123 0.0 0.0 0.0 1.0
290 1 0.12486374205822415 10.57831871081347 0.0 0.0 0.0 1.0
291 1 3.6276086011364157 -13.746921509572774 0.0 0.0 0.0 1.0
292 1 1.4881166441013178 -2.900494025596302 0.0 0.0 0.0 1.0
293 1 12.848209840147888 -20.646074738575322 0.0 0.0 0.0 1.0
294 1 -15.98675303447874 -2.496037913847964 0.0 0.0 0.0 1.0
295 1 22.199956768668294 -0.7716823822610195 0.0 0.0 0.0 1.0
296 1 -12.255592162809664 -4.5562340337252145 0.0 0.0 0.0 1.0
297 1 0.36828788441718885 -6.259940099177523 0.0 0.0 0.0 1.0
298 1 5.796987470537452 -12.214646248749894 0.0 0.0 0.0 1.0
299 1 -23.145082236533813 23.803092139484868 0.0 0.0 0.0 1.0
300 1 16.553183676478774 -8.933342076025276 0.0 0.0 0.0 1.0
301 1 -13.593908015500356 21.33644522418011 0.0 0.0 0.0 1.0
302 1 -15.08328080948243 -20.01997459138674 0.0 0.0 0.0 1.0
303 1 11.989129085844738 3.3150326237110335 0.0 0.0 0.0 1.0
304 1 20.587608745569632 18.331610563937424 0.0 0.0 0.0 1.0
305 1 24.559351403631815 12.049064550186479 0.0 0.0 0.0 1.0
306 1 18.431909921463117 24.645103097098755 0.0 0.0 0.0 1.0
307 1 2.8435963714925734 -11.742565966888558 0.0 0.0 0.0 1.0
308 1 -6.481507408042141 20.11308662223648 0.0 0.0 0.0 1.0
309 1 -11.458142131244536 -13.424556529301118 0.0 0.0 0.0 1.0
310 1 21.09272927079605 -3.28877272667874 0.0 0.0 0.0 1.0
311 1 16.67058287757824 -7.641120384773842 0.0 0.0 0.0 1.0
312 1 -9.934540481291748 -15.814658680006438 0.0 0.0 0.0 1.0
313 1 -13.494684427089876 -3.9672049931603297 0.0 0.0 0.0 1.0
314 1 19.168872856710607 -15.451134676808065 0.0 0.0 0.0 1.0
315 1 18.988467054801724 23.29077046559639 0.0 0.0 0.0 1.0
316 1 0.5021841502945819 -13.114599085607242 0.0 0.0 0.0 1.0
317 1 -23.730752588750565 -20.408645898893674 0.0 0.0 0.0 1.0
318 1 10.844002164131481 -17.99380289269178 0.0 0.0 0.0 1.0
319 1 -1.5379239317956106 20.39899784458489 0.0 0.0 0.0 1.0
320 1 13.526684646108315 -24.037293209761046 0.0 0.0 0.0 1.0
321 1 -21.75319619572399 -9.014206923841666 0.0 0.0 0.0 1.0
322 1 22.923866651642584 24.806260175116527 0.0 0.0 0.0 1.0
323 1 -9.39324819106978 10.586328103019966 0.0 0.0 0.0 1.0
324 1 -3.867489410260987 2.7842646464959806 0.0 0.0 0.0 1.0
325 1 0.7444147505467349 19.57627613797525 0.0 0.0 0.0 1.0
326 1 23.81680606498812 -19.667025318957737 0.0 0.0 0.0 1.0
327 1 -10.167528653766638 5.168038764023947 0.0 0.0 0.0 1.0
328 1 -0.2191461826843195 12.039178258476895 0.0 0.0 0.0 1.0
329 1 10.724309185162753 18.922711866794643 0.0 0.0 0.0 1.0
330 1 -7.68600602638902 4.488545401088405 0.0 0.0 0.0 1.0
331 1 -21.751065101409868 5.841469246091663 0.0 0.0 0.0 1.0
332 1 -14.28448771398414 6.992889031058869 0.0 0.0 0.0 1.0
333 1 -2.936895153680613 16.072155350581163 0.0 0.0 0.0 1.0
334 1 -23.027272496717615 0.9306851660872368 0.0 0.0 0.0 1.0
335 1 3.964358316779421 17.92468413553108 0.0 0.0 0.0 1.0
336 1 11.257537138746777 -3.0957200543917587 0.0 0.0 0.0 1.0
337 1 -16.387476063833223 -21.441919032170205 0.0 0.0 0.0 1.0
338 1 -10.364536067748443 10.91226327652192 0.0 0.0 0.0 1.0
339 1 9.148648226365879 5.441480013923755 0.0 0.0 0.0 1.0
340 1 -6.788428204109785 4.94509955407819 0.0 0.0 0.0 1.0
341 1 -18.01830136097048 7.65270539076063 0.0 0.0 0.0 1.0
342 1 15.549908141385252 9.835328920055616 0.0 0.0 0.0 1.0
343 1 -3.526411805461926 22.49264223406385 0.0 0.0 0.0 1.0
344 1 8.907309656640486 -10.558036881826327 0.0 0.0 0.0 1.0
345 1 -8.186234596244802 -8.348677097300179 0.0 0.0 0.0 1.0
346 1 -20.612524080744592 -13.765295503661967 0.0 0.0 0.0 1.0
347 1 -15.598612799287359 -21.408920960637268 0.0 0.0 0.0 1.0
348 1 -12.150603647251184 18.33842180909336 0.0 0.0 0.0 1.0
349 1 -22.517358831130363 16.14612737190074 0.0 0.0 0.0 1.0
350 1 3.6480851292760192 -21.730580643984997 0.0 0.0 0.0 1.0
351 1 19.732762096696447 -0.38177255781737074 0.0 0.0 0.0 1.0
352 1 -6.869375472268661 -0.7507468429664819 0.0 0.0 0.0 1.0
353 1 -11.778184077106534 -5.654388898458045 0.0 0.0 0.0 1.0
354 1 11.725387252297395 -10.724015025453598 0.0 0.0 0.0 1.0
355 1 7.137906360315867 -1.7316374204213183 0.0 0.0 0.0 1.0
356 1 -14.755633917244754 -15.438876850596838 0.0 0.0 0.0 1.0
357 1 -12.33378608425566 -17.07653595039457 0.0 0.0 0.0 1.0
358 1 -21.028903435904628 21.18550588239924 0.0 0.0 0.0 1.0
359 1 -13.412181887203317 15.984043637456622 0.0 0.0 0.0 1.0
360 1 -17.023395468759627 -2.7541625650230763 0.0 0.0 0.0 1.0
361 1 21.721754150784264 16.294746638265813 0.0 0.0 0.0 1.0
362 1 14.31632764222605 18.088379137148358 0.0 0.0 0.0 1.0
363 1 18.141527607175526 23.863037829585245 0.0 0.0 0.0 1.0
364 1 -5.996071595987395 -15.31290193775942 0.0 0.0 0.0 1.0
365 1 16.307781970569565 6.369413190945629 0.0 0.0 0.0 1.0
366 1 21.747899609740273 -6.25721132078958 0.0 0.0 0.0 1.0
367 1 -14.113756331930215 -11.254342341604257 0.0 0.0 0.0 1.0
368 1 -8.706539829955691 -4.334834692404378 0.0 0.0 0.0 1.0
369 1 -0.645380599327062 -2.6240963753408337 0.0 0.0 0.0 1.0
370 1 18.5938392655071 -16.58950181558979 0.0 0.0 0.0 1.0
371 1 -20.22960553016857 -3.484564136837271 0.0 0.0 0.0 1.0
372 1 22.88399497099065 16.697291688126484 0.0 0.0 0.0 1.0
373 1 24.594427074762216 -22.113010214252405 0.0 0.0 0.0 1.0
374 1 13.880928231714584 -9.739083400964976 0.0 0.0 0.0 1.0
375 1 19.712425447964527 4.918999575172219 0.0 0.0 0.0 1.0
376 1 20.27276117395401 -13.810367292295423 0.0 0.0 0.0 1.0
377 1 -16.483182473131947 -1.6339469961323339 0.0 0.0 0.0 1.0
378 1 -23.85286924178429 9.344161966067723 0.0 0.0 0.0 1.0
379 1 -12.587457799463325 1.3480885859314213 0.0 0.0 0.0 1.0
380 1 -5.381574337787864 -12.955318225334905 0.0 0.0 0.0 1.0
381 1 -4.889002408942169 16.610944404281568 0.0 0.0 0.0 1.0
382 1 -14.687181592182174 2.1052534122288087 0.0 0.0 0.0 1.0
383 1 20.855893995477437 3.1285967366058927 0.0 0.0 0.0 1.0
384 1 -5.734494861496174 23.719513319606648 0.0 0.0 0.0 1.0
385 1 -22.670699797435624 11.275707735169732 0.0 0.0 0.0 1.0
386 1 -20.63300646986903 0.8100150540746824 0.0 0.0 0.0 1.0
387 1 -17.130876051571157 3.9912237370765986 0.0 0.0 0.0 1.0
388 1 -16.700596775571178 0.7502682088405876 0.0 0.0 0.0 1.0
389 1 -10.985081203723402 17.74232561751713 0.0 0.0 0.0 1.0
390 1 -4.9598885565713005 -1.8489657517763938 0.0 0.0 0.0 1.0
391 1 18.808149674017272 -9.61657364346345 0.0 0.0 0.0 1.0
392 1 9.033591025426425 9.034886002378997 0.0 0.0 0.0 1.0
393 1 -13.884477520692485 17.779801585217605 0.0 0.0 0.0 1.0
394 1 2.2125305971262 9.56058344707617 0.0 0.0 0.0 1.0
395 1 -11.597463418874204 10.555293888184707 0.0 0.0 0.0 1.0
396 1 7.8974271529793185 -6.283952738137234 0.0 0.0 0.0 1.0
397 1 -3.5340362030510093 24.96622349536183 0.0 0.0 0.0 1.0
398 1 -21.005313658048223 -24.13225199456902 0.0 0.0 0.0 1.0
399 1 -12.047822949675968 -12.043589302654295 0.0 0.0 0.0 1.0
400 1 -6.279367580628982 -9.947449626151561 0.0 0.0 0.0 1.0
401 1 -11.359111432850577 1.4604196037207373 0.0 0.0 0.0 1.0
402 1 5.0427728740958955 10.65313302318959 0.0 0.0 0.0 1.0
403 1 22.791809390204627 23.508936065930357 0.0 0.0 0.0 1.0
404 1 -6.642007010559443 -11.978195562446764 0.0 0.0 0.0 1.0
405 1 -8.224474152770362 10.649375513039459 0.0 0.0 0.0 1.0
406 1 21.590319280462467 -12.675880784534282 0.0 0.0 0.0 1.0
407 1 -10.781343971542572 6.466026067159351 0.0 0.0 0.0 1.0
408 1 22.992823505025477 -4.288805716671888 0.0 0.0 0.0 1.0
409 1 -2.6773691066593557 22.7809124615073 0.0 0.0 0.0 1.0
410 1 -4.641742319502129 24.01125303804959 0.0 0.0 0.0 1.0
411 1 19.467820592822996 -7.08713544434076 0.0 0.0 0.0 1.0
412 1 8.422499145846842 -1.8871217795562956 0.0 0.0 0.0 1.0
413 1 -7.142739674923266 -15.337835130583239 0.0 0.0 0.0 1.0
414 1 -3.673399378814846 6.461401429185763 0.0 0.0 0.0 1.0
415 1 3.780787131002988 -11.08417341786076 0.0 0.0 0.0 1.0
416 1 16.3331871305706 14.748431144935985 0.0 0.0 0.0 1.0
417 1 -14.422742488212315 22.750180555101707 0.0 0.0 0.0 1.0
418 1 4.404426613530976 -5.923694283694907 0.0 0.0 0.0 1.0
419 1 2.2727612421812715 -1.578537222397248 0.0 0.0 0.0 1.0
420 1 5.175335587600305 -14.8407683445212 0.0 0.0 0.0 1.0
421 1 17.665823432118735 -4.983761128982682 0.0 0.0 0.0 1.0
422 1 -19.321504218869826 2.4827282235511134 0.0 0.0 0.0 1.0
423 1 8.28439282711836 20.404519674881442 0.0 0.0 0.0 1.0
424 1 11.72286385328443 6.891253788738382 0.0 0.0 0.0 1.0
425 1 -15.07950907826492 17.55098265830584 0.0 0.0 0.0 1.0
426 1 -5.746696886272552 -2.429432500856432 0.0 0.0 0.0 1.0
427 1 23.662549846257967 9.834355358230837 0.0 0.0 0.0 1.0
428 1 -24.91968989109099 16.92225902891721 0.0 0.0 0.0 1.0
429 1 11.982512879311216 16.69413886669559 0.0 0.0 0.0 1.0
430 1 1.8915676456016115 15.637646122705682 0.0 0.0 0.0 1.0
431 1 1.0326888165394053 2.5933485524452635 0.0 0.0 0.0 1.0
432 1 -20.3777848043091 16.581402774200598 0.0 0.0 0.0 1.0
433 1 21.58484885261432 -18.620357028970158 0.0 0.0 0.0 1.0
434 1 14.245332220596438 6.804362310596584 0.0 0.0 0.0 1.0
435 1 14.189051997877918 -17.341919554390362 0.0 0.0 0.0 1.0
436 1 -19.75739434808066 13.698703444111018 0.0 0.0 0.0 1.0
437 1 -4.9199766335025 -7.4546934545601395 0.0 0.0 0.0 1.0
438 1 -6.98255763157038 21.898399674285372 0.0 0.0 0.0 1.0
439 1 -15.382556901807442 6.722550175457435 0.0 0.0 0.0 1.0
440 1 9.939967216323623 -2.983187428264994 0.0 0.0 0.0 1.0
441 1 -22.73975794682374 23.14857231635301 0.0 0.0 0.0 1.0
442 1 -11.073313595764972 11.720210228106751 0.0 0.0 0.0 1.0
443 1 -21.983235118728455 -21.224315924182363 0.0 0.0 0.0 1.0
444 1 13.32837507210602 -16.301550387022417 0.0 0.0 0.0 1.0
445 1 -0.06527294180445509 -13.940190365246147 0.0 0.0 0.0 1.0
446 1 -13.724203716810251 -22.036252692469343 0.0 0.0 0.0 1.0
447 1 -15.572606797145966 -15.675140133477244 0.0 0.0 0.0 1.0
448 1 -16.899138579684113 7.990202899881368 0.0 0.0 0.0 1.0
449 1 -7.002354655494663 -17.093485795770093 0.0 0.0 0.0 1.0
450 1 -11.136577917765644 -12.710213877519527 0.0 0.0 0.0 1.0
451 1 3.912714865366212 8.861540935103704 0.0 0.0 0.0 1.0
452 1 -22.731289096593656 -14.276136702752934 0.0 0.0 0.0 1.0
453 1 9.532872747341074 2.72469771197067 0.0 0.0 0.0 1.0
454 1 -13.121990843114123 -1.2189071314600604 0.0 0.0 0.0 1.0
455 1 -24.925027055768652 11.144582109490806 0.0 0.0 0.0 1.0
456 1 -9.538157435313416 1.993167468471384 0.0 0.0 0.0 1.0
457 1 4.04924889901287 16.872532843110847 0.0 0.0 0.0 1.0
458 1 -14.330657555034481 -6.8603716749113595 0.0 0.0 0.0 1.0
459 1 -13.270902669663192 -9.173627396254041 0.0 0.0 0.0 1.0
460 1 16.43005814781548 -12.923506522075574 0.0 0.0 0.0 1.0
461 1 19.566086658980367 19.358007952821758 0.0 0.0 0.0 1.0
462 1 -1.1090058306570683 -19.378471368511097 0.0 0.0 0.0 1.0
463 1 -10.953545724697268 -9.572625426149134 0.0 0.0 0.0 1.0
464 1 23.369301837887043 -16.137072474624464 0.0 0.0 0.0 1.0
465 1 -5.97733235451917 4.950193902679235 0.0 0.0 0.0 1.0
466 1 19.015411771921407 -23.060833161443146 0.0 0.0 0.0 1.0
467 1 6.258493936946717 2.624853356947927 0.0 0.0 0.0 1.0
468 1 -13.89269419876739 3.022004061447099 0.0 0.0 0.0 1.0
469 1 -3.4714589427500933 -1.6040704649368145 0.0 0.0 0.0 1.0
470 1 17.335521416015695 3.893461739794841 0.0 0.0 0.0 1.0
471 1 7.841366705055009 -14.350216201891651 0.0 0.0 0.0 1.0
472 1 24.083115835140077 -14.013897548945813 0.0 0.0 0.0 1.0
473 1 18.217401571728317 15.834541718084779 0.0 0.0 0.0 1.0
474 1 8.097307592510617 -3.624710895566608 0.0 0.0 0.0 1.0
475 1 -22.748788362437807 -11.1833883093858 0.0 0.0 0.0 1.0
476 1 -20.302722062870327 -16.615251979396092 0.0 0.0 0.0 1.0
477 1 -20.474066963323228 -14.963742858869978 0.0 0.0 0.0 1.0
478 1 22.09192611553972 7.772749369488629 0.0 0.0 0.0 1.0
479 1 2.07370064565227 -3.5866135136523916 0.0 0.0 0.0 1.0
480 1 -8.19718880397902 5.614504671268715 0.0 0.0 0.0 1.0
481 1 -3.6977550695058135 17.675824004120194 0.0 0.0 0.0 1.0
482 1 16.32925148397247 -18.941137720793584 0.0 0.0 0.0 1.0
483 1 9.920310421837314 16.300769242297577 0.0 0.0 0.0 1.0
484 1 17.107482259731512 -5.790404673828476 0.0 0.0 0.0 1.0
485 1 -16.79079753239919 -24.36449187606416 0.0 0.0 0.0 1.0
486 1 24.108539808990294 -9.311355704797469 0.0 0.0 0.0 1.0
487 1 5.22784374963744 15.208469563004606 0.0 0.0 0.0 1.0
488 1 -9.796896111838722 3.3153971631157297 0.0 0.0 0.0 1.0
489 1 8.504266411205336 12.21542234034903 0.0 0.0 0.0 1.0
490 1 17.59195325085942 5.800793504472413 0.0 0.0 0.0 1.0
491 1 22.489732328882532 4.843001006878509 0.0 0.0 0.0 1.0
492 1 -11.50197795274025 -8.299752504102955 0.0 0.0 0.0 1.0
493 1 -19.24050869649551 23.303351471115057 0.0 0.0 0.0 1.0
494 1 -20.781203038385925 -7.999325627459264 0.0 0.0 0.0 1.0
495 1 -21.24842329211873 18.10024122773914 0.0 0.0 0.0 1.0
496 1 14.069890344622138 -3.2908517881909276 0.0 0.0 0.0 1.0
497 1 6.402655510363914 -21.45367708223332 0.0 0.0 0.0 1.0