LAMMPS data file from restart file: timestep = 0, procs = 1

2659 atoms

2 atom types

-25.50000000000e+00 24.50000000000e+00 xlo xhi
-25.50000000000e+00 24.50000000000e+00 ylo yhi
-10.00000000000e+01 10.00000000000e+01 zlo zhi

Masses

1 1.0
2 1.0

Atoms

1 1 11.583383529765918 -11.756538733145733 0.0 0.0 0.0 1.0
2 1 12.365072505746099 22.00964439022517 0.0 0.0 0.0 1.0
3 1 -8.598179260465155 15.171778750261495 0.0 0.0 0.0 1.0
4 1 15.8061654814706 2.9226203958563417 0.0 0.0 0.0 1.0
5 1 -22.447473745590386 22.072254077820432 0.0 0.0 0.0 1.0
6 1 16.133088361341358 -10.142689726602411 0.0 0.0 0.0 1.0
7 1 -11.524749189472667 -12.551690394382325 0.0 0.0 0.0 1.0
8 1 -16.362872596245214 -17.536734025494034 0.0 0.0 0.0 1.0
9 1 -19.47946292436569 -7.905355703268736 0.0 0.0 0.0 1.0
10 1 20.533534512934033 10.865703284635025 0.0 0.0 0.0 1.0
11 1 -14.95566666656361 -8.25315342488755 0.0 0.0 0.0 1.0
12 1 -1.7244632881346718 -4.460795157846924 0.0 0.0 0.0 1.0
13 1 1.6096749664516743 12.825852096998275 0.0 0.0 0.0 1.0
14 1 20.23856714309502 -10.723660998977602 0.0 0.0 0.0 1.0
15 1 18.065663655937684 -18.97060468555503 0.0 0.0 0.0 1.0
16 1 23.831967070044243 4.290105553819558 0.0 0.0 0.0 1.0
17 1 -8.632421430380923 -5.592948475064301 0.0 0.0 0.0 1.0
18 1 -9.864956586379975 3.377897495641612 0.0 0.0 0.0 1.0
19 1 -11.111052824035134 -6.6834834526315205 0.0 0.0 0.0 1.0
20 1 -14.548661256083495 -1.2780417793025016 0.0 0.0 0.0 1.0
21 1 4.804338966926242 1.669083255332577 0.0 0.0 0.0 1.0
22 1 -15.915593106444675 15.893212053517466 0.0 0.0 0.0 1.0
23 1 -6.517435638772522 -18.30512577285532 0.0 0.0 0.0 1.0
24 1 -4.981520467439278 17.557215492839475 0.0 0.0 0.0 1.0
25 1 -13.103676975011219 -24.770467633006042 0.0 0.0 0.0 1.0
26 1 15.88011659542066 -13.888020329576722 0.0 0.0 0.0 1.0
27 1 0.2433100003999762 -9.127113396045438 0.0 0.0 0.0 1.0
28 1 -1.201204765845219 -16.418773418843266 0.0 0.0 0.0 1.0
29 1 -13.36855723721388 3.5433591427010924 0.0 0.0 0.0 1.0
30 1 16.80490117504523 -23.084766616006746 0.0 0.0 0.0 1.0
31 1 17.756847938652797 -5.592047021501095 0.0 0.0 0.0 1.0
32 1 -2.603686159187248 -11.345888629671602 0.0 0.0 0.0 1.0
33 1 -1.0954800547640318 -2.9034919154282086 0.0 0.0 0.0 1.0
34 1 24.325817108735407 22.65174011531917 0.0 0.0 0.0 1.0
35 1 -5.675396139568484 -3.3955045138236173 0.0 0.0 0.0 1.0
36 1 -11.57519246849395 10.483561407912703 0.0 0.0 0.0 1.0
37 1 -24.11363007791657 10.482529929233763 0.0 0.0 0.0 1.0
38 1 11.535713329653355 7.277975223326131 0.0 0.0 0.0 1.0
39 1 -4.680039023287421 -13.959446360185012 0.0 0.0 0.0 1.0
40 1 4.039944013833551 4.1316228221110975 0.0 0.0 0.0 1.0
41 1 -15.333158904263383 12.74652753031824 0.0 0.0 0.0 1.0
42 1 -23.863095693128567 -12.15418142756397 0.0 0.0 0.0 1.0
43 1 16.580532249874103 15.408077465295236 0.0 0.0 0.0 1.0
44 1 -21.59857636480217 20.039391518355494 0.0 0.0 0.0 1.0
45 1 -1.8407498538448976 21.680818810548296 0.0 0.0 0.0 1.0
46 1 -20.810390857699435 -9.50270299497365 0.0 0.0 0.0 1.0
47 1 7.834507474600748 -2.251789477614885 0.0 0.0 0.0 1.0
48 1 -20.427696316350143 -18.419376850755853 0.0 0.0 0.0 1.0
49 1 -6.397448191162731 -0.21968670133056278 0.0 0.0 0.0 1.0
50 1 22.537328481141017 16.124583713943686 0.0 0.0 0.0 1.0
51 1 0.8983601326573059 -1.790851967385997 0.0 0.0 0.0 1.0
52 1 -5.936774105565849 -21.222126715886812 0.0 0.0 0.0 1.0
53 1 -8.349214777330133 9.160578078147196 0.0 0.0 0.0 1.0
54 1 14.069826597725552 -18.994175672281383 0.0 0.0 0.0 1.0
55 1 -6.832413663994853 -4.396620104048694 0.0 0.0 0.0 1.0
56 1 -8.026420434134877 -22.759921533406658 0.0 0.0 0.0 1.0
57 1 -15.895941831206494 -10.292160187368593 0.0 0.0 0.0 1.0
58 1 18.605365127544744 -10.160117830449694 0.0 0.0 0.0 1.0
59 1 -15.613600138019168 20.39888896576251 0.0 0.0 0.0 1.0
60 1 -7.248368179349342 -11.167588900041942 0.0 0.0 0.0 1.0
61 1 19.480950113533076 -11.674176472134828 0.0 0.0 0.0 1.0
62 1 12.410519515615903 3.4389659927019913 0.0 0.0 0.0 1.0
63 1 17.282046151711462 17.36694726937266 0.0 0.0 0.0 1.0
64 1 -6.531453464735449 1.465058254961697 0.0 0.0 0.0 1.0
65 1 -15.097485037886655 10.072866363701394 0.0 0.0 0.0 1.0
66 1 -7.346087673656175 -5.0846852158308415 0.0 0.0 0.0 1.0
67 1 -17.06903374033023 14.623980206264577 0.0 0.0 0.0 1.0
68 1 20.45219261860268 -15.968286465375648 0.0 0.0 0.0 1.0
69 1 23.31334174451429 -15.018009490843692 0.0 0.0 0.0 1.0
70 1 22.390666350122714 -19.717168240278422 0.0 0.0 0.0 1.0
71 1 11.27833737298161 -19.653382453238176 0.0 0.0 0.0 1.0
72 1 -23.369744686424472 -4.639899027469003 0.0 0.0 0.0 1.0
73 1 -16.16366941306064 -13.70861051770033 0.0 0.0 0.0 1.0
74 1 0.6178876794428021 -18.064308467732655 0.0 0.0 0.0 1.0
75 1 15.806752832394324 -3.515562923320932 0.0 0.0 0.0 1.0
76 1 -9.110920470840284 19.09684845963288 0.0 0.0 0.0 1.0
77 1 -14.319667963578242 4.054289161599733 0.0 0.0 0.0 1.0
78 1 -4.306620335229049 -14.931835223056689 0.0 0.0 0.0 1.0
79 1 -15.090994652875239 -7.441635982289036 0.0 0.0 0.0 1.0
80 1 -11.1093868395778 18.635426627920054 0.0 0.0 0.0 1.0
81 1 21.950880284575277 -16.79224301182846 0.0 0.0 0.0 1.0
82 1 -6.979586362537631 15.616142538675845 0.0 0.0 0.0 1.0
83 1 1.2019715609237132 13.625208802979344 0.0 0.0 0.0 1.0
84 1 -10.112187780256571 10.086242386265056 0.0 0.0 0.0 1.0
85 1 13.069269225673594 6.900360294987905 0.0 0.0 0.0 1.0
86 1 10.380688440491973 -18.884010065680478 0.0 0.0 0.0 1.0
87 1 -22.438713938892946 -20.317118789357067 0.0 0.0 0.0 1.0
88 1 6.553988025262825 24.922811193306558 0.0 0.0 0.0 1.0
89 1 8.837264181272225 20.517230263430527 0.0 0.0 0.0 1.0
90 1 1.55789240314515 9.431016594269295 0.0 0.0 0.0 1.0
91 1 12.129404282712933 -2.47193134289882 0.0 0.0 0.0 1.0
92 1 4.629358519698464 13.8802274838392 0.0 0.0 0.0 1.0
93 1 20.473680617248583 -14.159620720785249 0.0 0.0 0.0 1.0
94 1 -8.807597961687346 -0.6615889330876357 0.0 0.0 0.0 1.0
95 1 11.913648987607637 -9.994689869163748 0.0 0.0 0.0 1.0
96 1 16.576376421171048 -11.388939578138773 0.0 0.0 0.0 1.0
97 1 -14.625297028022793 24.779359914477332 0.0 0.0 0.0 1.0
98 1 18.94526319096167 -16.182500301185947 0.0 0.0 0.0 1.0
99 1 4.965420569783706 4.772895366921258 0.0 0.0 0.0 1.0
100 1 18.13322887219602 12.891175714534633 0.0 0.0 0.0 1.0
101 1 9.764286029814315 -10.433585363327442 0.0 0.0 0.0 1.0
102 1 13.297216126763928 -5.641005393875147 0.0 0.0 0.0 1.0
103 1 4.539036843863897 -12.748945419025082 0.0 0.0 0.0 1.0
104 1 12.04294841583706 -11.101243795889527 0.0 0.0 0.0 1.0
105 1 -18.54991495359397 21.32077732990026 0.0 0.0 0.0 1.0
106 1 -20.579506366333213 -7.151208880263642 0.0 0.0 0.0 1.0
107 1 20.748824164742743 -13.352808240596815 0.0 0.0 0.0 1.0
108 1 -18.899909907915575 -5.7785074689072395 0.0 0.0 0.0 1.0
109 1 11.31260802679435 -21.35538553160805 0.0 0.0 0.0 1.0
110 1 -11.133613544994336 3.0413688488890216 0.0 0.0 0.0 1.0
111 1 22.049355369937842 -13.021987644516658 0.0 0.0 0.0 1.0
112 1 -6.14722135596605 18.08727074072796 0.0 0.0 0.0 1.0
113 1 8.194424950427894 -0.28898903100226647 0.0 0.0 0.0 1.0
114 1 17.18105281499937 18.307624600452726 0.0 0.0 0.0 1.0
115 1 0.350352247598952 -23.904908073925235 0.0 0.0 0.0 1.0
116 1 21.55134980837063 -10.688686105496398 0.0 0.0 0.0 1.0
117 1 6.289306843296316 5.727202909949035 0.0 0.0 0.0 1.0
118 1 -11.910620937861943 -21.180952298882634 0.0 0.0 0.0 1.0
119 1 8.383230314821269 -5.863012060889673 0.0 0.0 0.0 1.0
120 1 -3.1990247794617943 -9.786339924760206 0.0 0.0 0.0 1.0
121 1 -22.270353089431495 1.4750119209662351 0.0 0.0 0.0 1.0
122 1 14.284549195126544 1.1821270263451495 0.0 0.0 0.0 1.0
123 1 4.595203355809023 -18.146645581029137 0.0 0.0 0.0 1.0
124 1 -13.490899011865947 -18.230000369052085 0.0 0.0 0.0 1.0
125 1 12.900650995300786 -16.940669262721748 0.0 0.0 0.0 1.0
126 1 6.84465805466316 19.365826319187228 0.0 0.0 0.0 1.0
127 1 13.074562543564006 23.93157558310463 0.0 0.0 0.0 1.0
128 1 8.197425853748442 14.666858337728954 0.0 0.0 0.0 1.0
129 1 -7.7975495734193 22.96485770512851 0.0 0.0 0.0 1.0
130 1 18.2766831680688 1.307762451967509 0.0 0.0 0.0 1.0
131 1 -9.270610312376364 17.48756955305558 0.0 0.0 0.0 1.0
132 1 23.256168382108 5.67884040365243 0.0 0.0 0.0 1.0
133 1 22.425484684293416 -17.900123001627804 0.0 0.0 0.0 1.0
134 1 14.08751418579763 -2.4675714552681427 0.0 0.0 0.0 1.0
135 1 -21.755787714016954 -2.595650721406571 0.0 0.0 0.0 1.0
136 1 -1.7788960414777968 -21.32871844688283 0.0 0.0 0.0 1.0
137 1 24.809251296736868 15.471370404720076 0.0 0.0 0.0 1.0
138 1 -22.887707875852907 -7.9595830730769705 0.0 0.0 0.0 1.0
139 1 -4.912971590270761 12.433909791632239 0.0 0.0 0.0 1.0
140 1 21.482108728795296 -17.926704860169522 0.0 0.0 0.0 1.0
141 1 -6.792838211913988 2.424833074033078 0.0 0.0 0.0 1.0
142 1 12.99893092868242 -22.40676846595933 0.0 0.0 0.0 1.0
143 1 23.76588772307415 -11.691382407842438 0.0 0.0 0.0 1.0
144 1 -9.507610328434252 11.211389365219773 0.0 0.0 0.0 1.0
145 1 -9.28899483862139 6.697004657814876 0.0 0.0 0.0 1.0
146 1 14.516971957701948 -14.979134544629852 0.0 0.0 0.0 1.0
147 1 -19.45911944335638 -16.84674491403121 0.0 0.0 0.0 1.0
148 1 -22.840836136745292 -23.737094769023727 0.0 0.0 0.0 1.0
149 1 1.5615753828609478 -23.32202651804301 0.0 0.0 0.0 1.0
150 1 3.7114118036935437 12.27087661148127 0.0 0.0 0.0 1.0
151 1 -2.9352727860506462 7.02159877593234 0.0 0.0 0.0 1.0
152 1 -18.334756262411478 -18.505006442009435 0.0 0.0 0.0 1.0
153 1 20.544743751003594 -7.971499569075874 0.0 0.0 0.0 1.0
154 1 -17.059795589492992 8.314931726120264 0.0 0.0 0.0 1.0
155 1 14.432368471044462 12.929359457167756 0.0 0.0 0.0 1.0
156 1 -20.284089714847642 5.006095330606204 0.0 0.0 0.0 1.0
157 1 -13.223942877589568 20.19524294848152 0.0 0.0 0.0 1.0
158 1 16.578543429107626 7.0753286549147845 0.0 0.0 0.0 1.0
159 1 -7.906752256913961 10.008899295049815 0.0 0.0 0.0 1.0
160 2 -25.0 -25.0 -1.0 0.0 0.0 1.0
161 2 -24.0 -25.0 -1.0 0.0 0.0 1.0
162 2 -23.0 -25.0 -1.0 0.0 0.0 1.0
163 2 -22.0 -25.0 -1.0 0.0 0.0 1.0
164 2 -21.0 -25.0 -1.0 0.0 0.0 1.0
165 2 -20.0 -25.0 -1.0 0.0 0.0 1.0
166 2 -19.0 -25.0 -1.0 0.0 0.0 1.0
167 2 -18.0 -25.0 -1.0 0.0 0.0 1.0
168 2 -17.0 -25.0 -1.0 0.0 0.0 1.0
169 2 -16.0 -25.0 -1.0 0.0 0.0 1.0
170 2 -15.0 -25.0 -1.0 0.0 0.0 1.0
171 2 -14.0 -25.0 -1.0 0.0 0.0 1.0
172 2 -13.0 -25.0 -1.0 0.0 0.0 1.0
173 2 -12.0 -25.0 -1.0 0.0 0.0 1.0
174 2 -11.0 -25.0 -1.0 0.0 0.0 1.0
175 2 -10.0 -25.0 -1.0 0.0 0.0 1.0
176 2 -9.0 -25.0 -1.0 0.0 0.0 1.0
177 2 -8.0 -25.0 -1.0 0.0 0.0 1.0
178 2 -7.0 -25.0 -1.0 0.0 0.0 1.0
179 2 -6.0 -25.0 -1.0 0.0 0.0 1.0
180 2 -5.0 -25.0 -1.0 0.0 0.0 1.0
181 2 -4.0 -25.0 -1.0 0.0 0.0 1.0
182 2 -3.0 -25.0 -1.0 0.0 0.0 1.0
183 2 -2.0 -25.0 -1.0 0.0 0.0 1.0
184 2 -1.0 -25.0 -1.0 0.0 0.0 1.0
185 2 0.0 -25.0 -1.0 0.0 0.0 1.0
186 2 1.0 -25.0 -1.0 0.0 0.0 1.0
187 2 2.0 -25.0 -1.0 0.0 0.0 1.0
188 2 3.0 -25.0 -1.0 0.0 0.0 1.0
189 2 4.0 -25.0 -1.0 0.0 0.0 1.0
190 2 5.0 -25.0 -1.0 0.0 0.0 1.0
191 2 6.0 -25.0 -1.0 0.0 0.0 1.0
192 2 7.0 -25.0 -1.0 0.0 0.0 1.0
193 2 8.0 -25.0 -1.0 0.0 0.0 1.0
194 2 9.0 -25.0 -1.0 0.0 0.0 1.0
195 2 10.0 -25.0 -1.0 0.0 0.0 1.0
196 2 11.0 -25.0 -1.0 0.0 0.0 1.0
197 2 12.0 -25.0 -1.0 0.0 0.0 1.0
198 2 13.0 -25.0 -1.0 0.0 0.0 1.0
199 2 14.0 -25.0 -1.0 0.0 0.0 1.0
200 2 15.0 -25.0 -1.0 0.0 0.0 1.0
201 2 16.0 -25.0 -1.0 0.0 0.0 1.0
202 2 17.0 -25.0 -1.0 0.0 0.0 1.0
203 2 18.0 -25.0 -1.0 0.0 0.0 1.0
204 2 19.0 -25.0 -1.0 0.0 0.0 1.0
205 2 20.0 -25.0 -1.0 0.0 0.0 1.0
206 2 21.0 -25.0 -1.0 0.0 0.0 1.0
207 2 22.0 -25.0 -1.0 0.0 0.0 1.0
208 2 23.0 -25.0 -1.0 0.0 0.0 1.0
209 2 24.0 -25.0 -1.0 0.0 0.0 1.0
210 2 -25.0 -24.0 -1.0 0.0 0.0 1.0
211 2 -24.0 -24.0 -1.0 0.0 0.0 1.0
212 2 -23.0 -24.0 -1.0 0.0 0.0 1.0
213 2 -22.0 -24.0 -1.0 0.0 0.0 1.0
214 2 -21.0 -24.0 -1.0 0.0 0.0 1.0
215 2 -20.0 -24.0 -1.0 0.0 0.0 1.0
216 2 -19.0 -24.0 -1.0 0.0 0.0 1.0
217 2 -18.0 -24.0 -1.0 0.0 0.0 1.0
218 2 -17.0 -24.0 -1.0 0.0 0.0 1.0
219 2 -16.0 -24.0 -1.0 0.0 0.0 1.0
220 2 -15.0 -24.0 -1.0 0.0 0.0 1.0
221 2 -14.0 -24.0 -1.0 0.0 0.0 1.0
222 2 -13.0 -24.0 -1.0 0.0 0.0 1.0
223 2 -12.0 -24.0 -1.0 0.0 0.0 1.0
224 2 -11.0 -24.0 -1.0 0.0 0.0 1.0
225 2 -10.0 -24.0 -1.0 0.0 0.0 1.0
226 2 -9.0 -24.0 -1.0 0.0 0.0 1.0
227 2 -8.0 -24.0 -1.0 0.0 0.0 1.0
228 2 -7.0 -24.0 -1.0 0.0 0.0 1.0
229 2 -6.0 -24.0 -1.0 0.0 0.0 1.0
230 2 -5.0 -24.0 -1.0 0.0 0.0 1.0
231 2 -4.0 -24.0 -1.0 0.0 0.0 1.0
232 2 -3.0 -24.0 -1.0 0.0 0.0 1.0
233 2 -2.0 -24.0 -1.0 0.0 0.0 1.0
234 2 -1.0 -24.0 -1.0 0.0 0.0 1.0
235 2 0.0 -24.0 -1.0 0.0 0.0 1.0
236 2 1.0 -24.0 -1.0 0.0 0.0 1.0
237 2 2.0 -24.0 -1.0 0.0 0.0 1.0
238 2 3.0 -24.0 -1.0 0.0 0.0 1.0
239 2 4.0 -24.0 -1.0 0.0 0.0 1.0
240 2 5.0 -24.0 -1.0 0.0 0.0 1.0
241 2 6.0 -24.0 -1.0 0.0 0.0 1.0
242 2 7.0 -24.0 -1.0 0.0 0.0 1.0
243 2 8.0 -24.0 -1.0 0.0 0.0 1.0
244 2 9.0 -24.0 -1.0 0.0 0.0 1.0
245 2 10.0 -24.0 -1.0 0.0 0.0 1.0
246 2 11.0 -24.0 -1.0 0.0 0.0 1.0
247 2 12.0 -24.0 -1.0 0.0 0.0 1.0
248 2 13.0 -24.0 -1.0 0.0 0.0 1.0
249 2 14.0 -24.0 -1.0 0.0 0.0 1.0
250 2 15.0 -24.0 -1.0 0.0 0.0 1.0
251 2 16.0 -24.0 -1.0 0.0 0.0 1.0
252 2 17.0 -24.0 -1.0 0.0 0.0 1.0
253 2 18.0 -24.0 -1.0 0.0 0.0 1.0
254 2 19.0 -24.0 -1.0 0.0 0.0 1.0
255 2 20.0 -24.0 -1.0 0.0 0.0 1.0
256 2 21.0 -24.0 -1.0 0.0 0.0 1.0
257 2 22.0 -24.0 -1.0 0.0 0.0 1.0
258 2 23.0 -24.0 -1.0 0.0 0.0 1.0
259 2 24.0 -24.0 -1.0 0.0 0.0 1.0
260 2 -25.0 -23.0 -1.0 0.0 0.0 1.0
261 2 -24.0 -23.0 -1.0 0.0 0.0 1.0
262 2 -23.0 -23.0 -1.0 0.0 0.0 1.0
263 2 -22.0 -23.0 -1.0 0.0 0.0 1.0
264 2 -21.0 -23.0 -1.0 0.0 0.0 1.0
265 2 -20.0 -23.0 -1.0 0.0 0.0 1.0
266 2 -19.0 -23.0 -1.0 0.0 0.0 1.0
267 2 -18.0 -23.0 -1.0 0.0 0.0 1.0
268 2 -17.0 -23.0 -1.0 0.0 0.0 1.0
269 2 -16.0 -23.0 -1.0 0.0 0.0 1.0
270 2 -15.0 -23.0 -1.0 0.0 0.0 1.0
271 2 -14.0 -23.0 -1.0 0.0 0.0 1.0
272 2 -13.0 -23.0 -1.0 0.0 0.0 1.0
273 2 -12.0 -23.0 -1.0 0.0 0.0 1.0
274 2 -11.0 -23.0 -1.0 0.0 0.0 1.0
275 2 -10.0 -23.0 -1.0 0.0 0.0 1.0
276 2 -9.0 -23.0 -1.0 0.0 0.0 1.0
277 2 -8.0 -23.0 -1.0 0.0 0.0 1.0
278 2 -7.0 -23.0 -1.0 0.0 0.0 1.0
279 2 -6.0 -23.0 -1.0 0.0 0.0 1.0
280 2 -5.0 -23.0 -1.0 0.0 0.0 1.0
281 2 -4.0 -23.0 -1.0 0.0 0.0 1.0
282 2 -3.0 -23.0 -1.0 0.0 0.0 1.0
283 2 -2.0 -23.0 -1.0 0.0 0.0 1.0
284 2 -1.0 -23.0 -1.0 0.0 0.0 1.0
285 2 0.0 -23.0 -1.0 0.0 0.0 1.0
286 2 1.0 -23.0 -1.0 0.0 0.0 1.0
287 2 2.0 -23.0 -1.0 0.0 0.0 1.0
288 2 3.0 -23.0 -1.0 0.0 0.0 1.0
289 2 4.0 -23.0 -1.0 0.0 0.0 1.0
290 2 5.0 -23.0 -1.0 0.0 0.0 1.0
291 2 6.0 -23.0 -1.0 0.0 0.0 1.0
292 2 7.0 -23.0 -1.0 0.0 0.0 1.0
293 2 8.0 -23.0 -1.0 0.0 0.0 1.0
294 2 9.0 -23.0 -1.0 0.0 0.0 1.0
295 2 10.0 -23.0 -1.0 0.0 0.0 1.0
296 2 11.0 -23.0 -1.0 0.0 0.0 1.0
297 2 12.0 -23.0 -1.0 0.0 0.0 1.0
298 2 13.0 -23.0 -1.0 0.0 0.0 1.0
299 2 14.0 -23.0 -1.0 0.0 0.0 1.0
300 2 15.0 -23.0 -1.0 0.0 0.0 1.0
301 2 16.0 -23.0 -1.0 0.0 0.0 1.0
302 2 17.0 -23.0 -1.0 0.0 0.0 1.0
303 2 18.0 -23.0 -1.0 0.0 0.0 1.0
304 2 19.0 -23.0 -1.0 0.0 0.0 1.0
305 2 20.0 -23.0 -1.0 0.0 0.0 1.0
306 2 21.0 -23.0 -1.0 0.0 0.0 1.0
307 2 22.0 -23.0 -1.0 0.0 0.0 1.0
308 2 23.0 -23.0 -1.0 0.0 0.0 1.0
309 2 24.0 -23.0 -1.0 0.0 0.0 1.0
310 2 -25.0 -22.0 -1.0 0.0 0.0 1.0
311 2 -24.0 -22.0 -1.0 0.0 0.0 1.0
312 2 -23.0 -22.0 -1.0 0.0 0.0 1.0
313 2 -22.0 -22.0 -1.0 0.0 0.0 1.0
314 2 -21.0 -22.0 -1.0 0.0 0.0 1.0
315 2 -20.0 -22.0 -1.0 0.0 0.0 1.0
316 2 -19.0 -22.0 -1.0 0.0 0.0 1.0
317 2 -18.0 -22.0 -1.0 0.0 0.0 1.0
318 2 -17.0 -22.0 -1.0 0.0 0.0 1.0
319 2 -16.0 -22.0 -1.0 0.0 0.0 1.0
320 2 -15.0 -22.0 -1.0 0.0 0.0 1.0
321 2 -14.0 -22.0 -1.0 0.0 0.0 1.0
322 2 -13.0 -22.0 -1.0 0.0 0.0 1.0
323 2 -12.0 -22.0 -1.0 0.0 0.0 1.0
324 2 -11.0 -22.0 -1.0 0.0 0.0 1.0
325 2 -10.0 -22.0 -1.0 0.0 0.0 1.0
326 2 -9.0 -22.0 -1.0 0.0 0.0 1.0
327 2 -8.0 -22.0 -1.0 0.0 0.0 1.0
328 2 -7.0 -22.0 -1.0 0.0 0.0 1.0
329 2 -6.0 -22.0 -1.0 0.0 0.0 1.0
330 2 -5.0 -22.0 -1.0 0.0 0.0 1.0
331 2 -4.0 -22.0 -1.0 0.0 0.0 1.0
332 2 -3.0 -22.0 -1.0 0.0 0.0 1.0
333 2 -2.0 -22.0 -1.0 0.0 0.0 1.0
334 2 -1.0 -22.0 -1.0 0.0 0.0 1.0
335 2 0.0 -22.0 -1.0 0.0 0.0 1.0
336 2 1.0 -22.0 -1.0 0.0 0.0 1.0
337 2 2.0 -22.0 -1.0 0.0 0.0 1.0
338 2 3.0 -22.0 -1.0 0.0 0.0 1.0
339 2 4.0 -22.0 -1.0 0.0 0.0 1.0
340 2 5.0 -22.0 -1.0 0.0 0.0 1.0
341 2 6.0 -22.0 -1.0 0.0 0.0 1.0
342 2 7.0 -22.0 -1.0 0.0 0.0 1.0
343 2 8.0 -22.0 -1.0 0.0 0.0 1.0
344 2 9.0 -22.0 -1.0 0.0 0.0 1.0
345 2 10.0 -22.0 -1.0 0.0 0.0 1.0
346 2 11.0 -22.0 -1.0 0.0 0.0 1.0
347 2 12.0 -22.0 -1.0 0.0 0.0 1.0
348 2 13.0 -22.0 -1.0 0.0 0.0 1.0
349 2 14.0 -22.0 -1.0 0.0 0.0 1.0
350 2 15.0 -22.0 -1.0 0.0 0.0 1.0
351 2 16.0 -22.0 -1.0 0.0 0.0 1.0
352 2 17.0 -22.0 -1.0 0.0 0.0 1.0
353 2 18.0 -22.0 -1.0 0.0 0.0 1.0
354 2 19.0 -22.0 -1.0 0.0 0.0 1.0
355 2 20.0 -22.0 -1.0 0.0 0.0 1.0
356 2 21.0 -22.0 -1.0 0.0 0.0 1.0
357 2 22.0 -22.0 -1.0 0.0 0.0 1.0
358 2 23.0 -22.0 -1.0 0.0 0.0 1.0
359 2 24.0 -22.0 -1.0 0.0 0.0 1.0
360 2 -25.0 -21.0 -1.0 0.0 0.0 1.0
361 2 -24.0 -21.0 -1.0 0.0 0.0 1.0
362 2 -23.0 -21.0 -1.0 0.0 0.0 1.0
363 2 -22.0 -21.0 -1.0 0.0 0.0 1.0
364 2 -21.0 -21.0 -1.0 0.0 0.0 1.0
365 2 -20.0 -21.0 -1.0 0.0 0.0 1.0
366 2 -19.0 -21.0 -1.0 0.0 0.0 1.0
367 2 -18.0 -21.0 -1.0 0.0 0.0 1.0
368 2 -17.0 -21.0 -1.0 0.0 0.0 1.0
369 2 -16.0 -21.0 -1.0 0.0 0.0 1.0
370 2 -15.0 -21.0 -1.0 0.0 0.0 1.0
371 2 -14.0 -21.0 -1.0 0.0 0.0 1.0
372 2 -13.0 -21.0 -1.0 0.0 0.0 1.0
373 2 -12.0 -21.0 -1.0 0.0 0.0 1.0
374 2 -11.0 -21.0 -1.0 0.0 0.0 1.0
375 2 -10.0 -21.0 -1.0 0.0 0.0 1.0
376 2 -9.0 -21.0 -1.0 0.0 0.0 1.0
377 2 -8.0 -21.0 -1.0 0.0 0.0 1.0
378 2 -7.0 -21.0 -1.0 0.0 0.0 1.0
379 2 -6.0 -21.0 -1.0 0.0 0.0 1.0
380 2 -5.0 -21.0 -1.0 0.0 0.0 1.0
381 2 -4.0 -21.0 -1.0 0.0 0.0 1.0
382 2 -3.0 -21.0 -1.0 0.0 0.0 1.0
383 2 -2.0 -21.0 -1.0 0.0 0.0 1.0
384 2 -1.0 -21.0 -1.0 0.0 0.0 1.0
385 2 0.0 -21.0 -1.0 0.0 0.0 1.0
386 2 1.0 -21.0 -1.0 0.0 0.0 1.0
387 2 2.0 -21.0 -1.0 0.0 0.0 1.0
388 2 3.0 -21.0 -1.0 0.0 0.0 1.0
389 2 4.0 -21.0 -1.0 0.0 0.0 1.0
390 2 5.0 -21.0 -1.0 0.0 0.0 1.0
391 2 6.0 -21.0 -1.0 0.0 0.0 1.0
392 2 7.0 -21.0 -1.0 0.0 0.0 1.0
393 2 8.0 -21.0 -1.0 0.0 0.0 1.0
394 2 9.0 -21.0 -1.0 0.0 0.0 1.0
395 2 10.0 -21.0 -1.0 0.0 0.0 1.0
396 2 11.0 -21.0 -1.0 0.0 0.0 1.0
397 2 12.0 -21.0 -1.0 0.0 0.0 1.0
398 2 13.0 -21.0 -1.0 0.0 0.0 1.0
399 2 14.0 -21.0 -1.0 0.0 0.0 1.0
400 2 15.0 -21.0 -1.0 0.0 0.0 1.0
401 2 16.0 -21.0 -1.0 0.0 0.0 1.0
402 2 17.0 -21.0 -1.0 0.0 0.0 1.0
403 2 18.0 -21.0 -1.0 0.0 0.0 1.0
404 2 19.0 -21.0 -1.0 0.0 0.0 1.0
405 2 20.0 -21.0 -1.0 0.0 0.0 1.0
406 2 21.0 -21.0 -1.0 0.0 0.0 1.0
407 2 22.0 -21.0 -1.0 0.0 0.0 1.0
408 2 23.0 -21.0 -1.0 0.0 0.0 1.0
409 2 24.0 -21.0 -1.0 0.0 0.0 1.0
410 2 -25.0 -20.0 -1.0 0.0 0.0 1.0
411 2 -24.0 -20.0 -1.0 0.0 0.0 1.0
412 2 -23.0 -20.0 -1.0 0.0 0.0 1.0
413 2 -22.0 -20.0 -1.0 0.0 0.0 1.0
414 2 -21.0 -20.0 -1.0 0.0 0.0 1.0
415 2 -20.0 -20.0 -1.0 0.0 0.0 1.0
416 2 -19.0 -20.0 -1.0 0.0 0.0 1.0
417 2 -18.0 -20.0 -1.0 0.0 0.0 1.0
418 2 -17.0 -20.0 -1.0 0.0 0.0 1.0
419 2 -16.0 -20.0 -1.0 0.0 0.0 1.0
420 2 -15.0 -20.0 -1.0 0.0 0.0 1.0
421 2 -14.0 -20.0 -1.0 0.0 0.0 1.0
422 2 -13.0 -20.0 -1.0 0.0 0.0 1.0
423 2 -12.0 -20.0 -1.0 0.0 0.0 1.0
424 2 -11.0 -20.0 -1.0 0.0 0.0 1.0
425 2 -10.0 -20.0 -1.0 0.0 0.0 1.0
426 2 -9.0 -20.0 -1.0 0.0 0.0 1.0
427 2 -8.0 -20.0 -1.0 0.0 0.0 1.0
428 2 -7.0 -20.0 -1.0 0.0 0.0 1.0
429 2 -6.0 -20.0 -1.0 0.0 0.0 1.0
430 2 -5.0 -20.0 -1.0 0.0 0.0 1.0
431 2 -4.0 -20.0 -1.0 0.0 0.0 1.0
432 2 -3.0 -20.0 -1.0 0.0 0.0 1.0
433 2 -2.0 -20.0 -1.0 0.0 0.0 1.0
434 2 -1.0 -20.0 -1.0 0.0 0.0 1.0
435 2 0.0 -20.0 -1.0 0.0 0.0 1.0
436 2 1.0 -20.0 -1.0 0.0 0.0 1.0
437 2 2.0 -20.0 -1.0 0.0 0.0 1.0
438 2 3.0 -20.0 -1.0 0.0 0.0 1.0
439 2 4.0 -20.0 -1.0 0.0 0.0 1.0
440 2 5.0 -20.0 -1.0 0.0 0.0 1.0
441 2 6.0 -20.0 -1.0 0.0 0.0 1.0
442 2 7.0 -20.0 -1.0 0.0 0.0 1.0
443 2 8.0 -20.0 -1.0 0.0 0.0 1.0
444 2 9.0 -20.0 -1.0 0.0 0.0 1.0
445 2 10.0 -20.0 -1.0 0.0 0.0 1.0
446 2 11.0 -20.0 -1.0 0.0 0.0 1.0
447 2 12.0 -20.0 -1.0 0.0 0.0 1.0
448 2 13.0 -20.0 -1.0 0.0 0.0 1.0
449 2 14.0 -20.0 -1.0 0.0 0.0 1.0
450 2 15.0 -20.0 -1.0 0.0 0.0 1.0
451 2 16.0 -20.0 -1.0 0.0 0.0 1.0
452 2 17.0 -20.0 -1.0 0.0 0.0 1.0
453 2 18.0 -20.0 -1.0 0.0 0.0 1.0
454 2 19.0 -20.0 -1.0 0.0 0.0 1.0
455 2 20.0 -20.0 -1.0 0.0 0.0 1.0
456 2 21.0 -20.0 -1.0 0.0 0.0 1.0
457 2 22.0 -20.0 -1.0 0.0 0.0 1.0
458 2 23.0 -20.0 -1.0 0.0 0.0 1.0
459 2 24.0 -20.0 -1.0 0.0 0.0 1.0
460 2 -25.0 -19.0 -1.0 0.0 0.0 1.0
461 2 -24.0 -19.0 -1.0 0.0 0.0 1.0
462 2 -23.0 -19.0 -1.0 0.0 0.0 1.0
463 2 -22.0 -19.0 -1.0 0.0 0.0 1.0
464 2 -21.0 -19.0 -1.0 0.0 0.0 1.0
465 2 -20.0 -19.0 -1.0 0.0 0.0 1.0
466 2 -19.0 -19.0 -1.0 0.0 0.0 1.0
467 2 -18.0 -19.0 -1.0 0.0 0.0 1.0
468 2 -17.0 -19.0 -1.0 0.0 0.0 1.0
469 2 -16.0 -19.0 -1.0 0.0 0.0 1.0
470 2 -15.0 -19.0 -1.0 0.0 0.0 1.0
471 2 -14.0 -19.0 -1.0 0.0 0.0 1.0
472 2 -13.0 -19.0 -1.0 0.0 0.0 1.0
473 2 -12.0 -19.0 -1.0 0.0 0.0 1.0
474 2 -11.0 -19.0 -1.0 0.0 0.0 1.0
475 2 -10.0 -19.0 -1.0 0.0 0.0 1.0
476 2 -9.0 -19.0 -1.0 0.0 0.0 1.0
477 2 -8.0 -19.0 -1.0 0.0 0.0 1.0
478 2 -7.0 -19.0 -1.0 0.0 0.0 1.0
479 2 -6.0 -19.0 -1.0 0.0 0.0 1.0
480 2 -5.0 -19.0 -1.0 0.0 0.0 1.0
481 2 -4.0 -19.0 -1.0 0.0 0.0 1.0
482 2 -3.0 -19.0 -1.0 0.0 0.0 1.0
483 2 -2.0 -19.0 -1.0 0.0 0.0 1.0
484 2 -1.0 -19.0 -1.0 0.0 0.0 1.0
485 2 0.0 -19.0 -1.0 0.0 0.0 1.0
486 2 1.0 -19.0 -1.0 0.0 0.0 1.0
487 2 2.0 -19.0 -1.0 0.0 0.0 1.0
488 2 3.0 -19.0 -1.0 0.0 0.0 1.0
489 2 4.0 -19.0 -1.0 0.0 0.0 1.0
490 2 5.0 -19.0 -1.0 0.0 0.0 1.0
491 2 6.0 -19.0 -1.0 0.0 0.0 1.0
492 2 7.0 -19.0 -1.0 0.0 0.0 1.0
493 2 8.0 -19.0 -1.0 0.0 0.0 1.0
494 2 9.0 -19.0 -1.0 0.0 0.0 1.0
495 2 10.0 -19.0 -1.0 0.0 0.0 1.0
496 2 11.0 -19.0 -1.0 0.0 0.0 1.0
497 2 12.0 -19.0 -1.0 0.0 0.0 1.0
498 2 13.0 -19.0 -1.0 0.0 0.0 1.0
499 2 14.0 -19.0 -1.0 0.0 0.0 1.0
500 2 15.0 -19.0 -1.0 0.0 0.0 1.0
501 2 16.0 -19.0 -1.0 0.0 0.0 1.0
502 2 17.0 -19.0 -1.0 0.0 0.0 1.0
503 2 18.0 -19.0 -1.0 0.0 0.0 1.0
504 2 19.0 -19.0 -1.0 0.0 0.0 1.0
505 2 20.0 -19.0 -1.0 0.0 0.0 1.0
506 2 21.0 -19.0 -1.0 0.0 0.0 1.0
507 2 22.0 -19.0 -1.0 0.0 0.0 1.0
508 2 23.0 -19.0 -1.0 0.0 0.0 1.0
509 2 24.0 -19.0 -1.0 0.0 0.0 1.0
510 2 -25.0 -18.0 -1.0 0.0 0.0 1.0
511 2 -24.0 -18.0 -1.0 0.0 0.0 1.0
512 2 -23.0 -18.0 -1.0 0.0 0.0 1.0
513 2 -22.0 -18.0 -1.0 0.0 0.0 1.0
514 2 -21.0 -18.0 -1.0 0.0 0.0 1.0
515 2 -20.0 -18.0 -1.0 0.0 0.0 1.0
516 2 -19.0 -18.0 -1.0 0.0 0.0 1.0
517 2 -18.0 -18.0 -1.0 0.0 0.0 1.0
518 2 -17.0 -18.0 -1.0 0.0 0.0 1.0
519 2 -16.0 -18.0 -1.0 0.0 0.0 1.0
520 2 -15.0 -18.0 -1.0 0.0 0.0 1.0
521 2 -14.0 -18.0 -1.0 0.0 0.0 1.0
522 2 -13.0 -18.0 -1.0 0.0 0.0 1.0
523 2 -12.0 -18.0 -1.0 0.0 0.0 1.0
524 2 -11.0 -18.0 -1.0 0.0 0.0 1.0
525 2 -10.0 -18.0 -1.0 0.0 0.0 1.0
526 2 -9.0 -18.0 -1.0 0.0 0.0 1.0
527 2 -8.0 -18.0 -1.0 0.0 0.0 1.0
528 2 -7.0 -18.0 -1.0 0.0 0.0 1.0
529 2 -6.0 -18.0 -1.0 0.0 0.0 1.0
530 2 -5.0 -18.0 -1.0 0.0 0.0 1.0
531 2 -4.0 -18.0 -1.0 0.0 0.0 1.0
532 2 -3.0 -18.0 -1.0 0.0 0.0 1.0
533 2 -2.0 -18.0 -1.0 0.0 0.0 1.0
534 2 -1.0 -18.0 -1.0 0.0 0.0 1.0
535 2 0.0 -18.0 -1.0 0.0 0.0 1.0
536 2 1.0 -18.0 -1.0 0.0 0.0 1.0
537 2 2.0 -18.0 -1.0 0.0 0.0 1.0
538 2 3.0 -18.0 -1.0 0.0 0.0 1.0
539 2 4.0 -18.0 -1.0 0.0 0.0 1.0
540 2 5.0 -18.0 -1.0 0.0 0.0 1.0
541 2 6.0 -18.0 -1.0 0.0 0.0 1.0
542 2 7.0 -18.0 -1.0 0.0 0.0 1.0
543 2 8.0 -18.0 -1.0 0.0 0.0 1.0
544 2 9.0 -18.0 -1.0 0.0 0.0 1.0
545 2 10.0 -18.0 -1.0 0.0 0.0 1.0
546 2 11.0 -18.0 -1.0 0.0 0.0 1.0
547 2 12.0 -18.0 -1.0 0.0 0.0 1.0
548 2 13.0 -18.0 -1.0 0.0 0.0 1.0
549 2 14.0 -18.0 -1.0 0.0 0.0 1.0
550 2 15.0 -18.0 -1.0 0.0 0.0 1.0
551 2 16.0 -18.0 -1.0 0.0 0.0 1.0
552 2 17.0 -18.0 -1.0 0.0 0.0 1.0
553 2 18.0 -18.0 -1.0 0.0 0.0 1.0
554 2 19.0 -18.0 -1.0 0.0 0.0 1.0
555 2 20.0 -18.0 -1.0 0.0 0.0 1.0
556 2 21.0 -18.0 -1.0 0.0 0.0 1.0
557 2 22.0 -18.0 -1.0 0.0 0.0 1.0
558 2 23.0 -18.0 -1.0 0.0 0.0 1.0
559 2 24.0 -18.0 -1.0 0.0 0.0 1.0
560 2 -25.0 -17.0 -1.0 0.0 0.0 1.0
561 2 -24.0 -17.0 -1.0 0.0 0.0 1.0
562 2 -23.0 -17.0 -1.0 0.0 0.0 1.0
563 2 -22.0 -17.0 -1.0 0.0 0.0 1.0
564 2 -21.0 -17.0 -1.0 0.0 0.0 1.0
565 2 -20.0 -17.0 -1.0 0.0 0.0 1.0
566 2 -19.0 -17.0 -1.0 0.0 0.0 1.0
567 2 -18.0 -17.0 -1.0 0.0 0.0 1.0
568 2 -17.0 -17.0 -1.0 0.0 0.0 1.0
569 2 -16.0 -17.0 -1.0 0.0 0.0 1.0
570 2 -15.0 -17.0 -1.0 0.0 0.0 1.0
571 2 -14.0 -17.0 -1.0 0.0 0.0 1.0
572 2 -13.0 -17.0 -1.0 0.0 0.0 1.0
573 2 -12.0 -17.0 -1.0 0.0 0.0 1.0
574 2 -11.0 -17.0 -1.0 0.0 0.0 1.0
575 2 -10.0 -17.0 -1.0 0.0 0.0 1.0
576 2 -9.0 -17.0 -1.0 0.0 0.0 1.0
577 2 -8.0 -17.0 -1.0 0.0 0.0 1.0
578 2 -7.0 -17.0 -1.0 0.0 0.0 1.0
579 2 -6.0 -17.0 -1.0 0.0 0.0 1.0
580 2 -5.0 -17.0 -1.0 0.0 0.0 1.0
581 2 -4.0 -17.0 -1.0 0.0 0.0 1.0
582 2 -3.0 -17.0 -1.0 0.0 0.0 1.0
583 2 -2.0 -17.0 -1.0 0.0 0.0 1.0
584 2 -1.0 -17.0 -1.0 0.0 0.0 1.0
585 2 0.0 -17.0 -1.0 0.0 0.0 1.0
586 2 1.0 -17.0 -1.0 0.0 0.0 1.0
587 2 2.0 -17.0 -1.0 0.0 0.0 1.0
588 2 3.0 -17.0 -1.0 0.0 0.0 1.0
589 2 4.0 -17.0 -1.0 0.0 0.0 1.0
590 2 5.0 -17.0 -1.0 0.0 0.0 1.0
591 2 6.0 -17.0 -1.0 0.0 0.0 1.0
592 2 7.0 -17.0 -1.0 0.0 0.0 1.0
593 2 8.0 -17.0 -1.0 0.0 0.0 1.0
594 2 9.0 -17.0 -1.0 0.0 0.0 1.0
595 2 10.0 -17.0 -1.0 0.0 0.0 1.0
596 2 11.0 -17.0 -1.0 0.0 0.0 1.0
597 2 12.0 -17.0 -1.0 0.0 0.0 1.0
598 2 13.0 -17.0 -1.0 0.0 0.0 1.0
599 2 14.0 -17.0 -1.0 0.0 0.0 1.0
600 2 15.0 -17.0 -1.0 0.0 0.0 1.0
601 2 16.0 -17.0 -1.0 0.0 0.0 1.0
602 2 17.0 -17.0 -1.0 0.0 0.0 1.0
603 2 18.0 -17.0 -1.0 0.0 0.0 1.0
604 2 19.0 -17.0 -1.0 0.0 0.0 1.0
605 2 20.0 -17.0 -1.0 0.0 0.0 1.0
606 2 21.0 -17.0 -1.0 0.0 0.0 1.0
607 2 22.0 -17.0 -1.0 0.0 0.0 1.0
608 2 23.0 -17.0 -1.0 0.0 0.0 1.0
609 2 24.0 -17.0 -1.0 0.0 0.0 1.0
610 2 -25.0 -16.0 -1.0 0.0 0.0 1.0
611 2 -24.0 -16.0 -1.0 0.0 0.0 1.0
612 2 -23.0 -16.0 -1.0 0.0 0.0 1.0
613 2 -22.0 -16.0 -1.0 0.0 0.0 1.0
614 2 -21.0 -16.0 -1.0 0.0 0.0 1.0
615 2 -20.0 -16.0 -1.0 0.0 0.0 1.0
616 2 -19.0 -16.0 -1.0 0.0 0.0 1.0
617 2 -18.0 -16.0 -1.0 0.0 0.0 1.0
618 2 -17.0 -16.0 -1.0 0.0 0.0 1.0
619 2 -16.0 -16.0 -1.0 0.0 0.0 1.0
620 2 -15.0 -16.0 -1.0 0.0 0.0 1.0
621 2 -14.0 -16.0 -1.0 0.0 0.0 1.0
622 2 -13.0 -16.0 -1.0 0.0 0.0 1.0
623 2 -12.0 -16.0 -1.0 0.0 0.0 1.0
624 2 -11.0 -16.0 -1.0 0.0 0.0 1.0
625 2 -10.0 -16.0 -1.0 0.0 0.0 1.0
626 2 -9.0 -16.0 -1.0 0.0 0.0 1.0
627 2 -8.0 -16.0 -1.0 0.0 0.0 1.0
628 2 -7.0 -16.0 -1.0 0.0 0.0 1.0
629 2 -6.0 -16.0 -1.0 0.0 0.0 1.0
630 2 -5.0 -16.0 -1.0 0.0 0.0 1.0
631 2 -4.0 -16.0 -1.0 0.0 0.0 1.0
632 2 -3.0 -16.0 -1.0 0.0 0.0 1.0
633 2 -2.0 -16.0 -1.0 0.0 0.0 1.0
634 2 -1.0 -16.0 -1.0 0.0 0.0 1.0
635 2 0.0 -16.0 -1.0 0.0 0.0 1.0
636 2 1.0 -16.0 -1.0 0.0 0.0 1.0
637 2 2.0 -16.0 -1.0 0.0 0.0 1.0
638 2 3.0 -16.0 -1.0 0.0 0.0 1.0
639 2 4.0 -16.0 -1.0 0.0 0.0 1.0
640 2 5.0 -16.0 -1.0 0.0 0.0 1.0
641 2 6.0 -16.0 -1.0 0.0 0.0 1.0
642 2 7.0 -16.0 -1.0 0.0 0.0 1.0
643 2 8.0 -16.0 -1.0 0.0 0.0 1.0
644 2 9.0 -16.0 -1.0 0.0 0.0 1.0
645 2 10.0 -16.0 -1.0 0.0 0.0 1.0
646 2 11.0 -16.0 -1.0 0.0 0.0 1.0
647 2 12.0 -16.0 -1.0 0.0 0.0 1.0
648 2 13.0 -16.0 -1.0 0.0 0.0 1.0
649 2 14.0 -16.0 -1.0 0.0 0.0 1.0
650 2 15.0 -16.0 -1.0 0.0 0.0 1.0
651 2 16.0 -16.0 -1.0 0.0 0.0 1.0
652 2 17.0 -16.0 -1.0 0.0 0.0 1.0
653 2 18.0 -16.0 -1.0 0.0 0.0 1.0
654 2 19.0 -16.0 -1.0 0.0 0.0 1.0
655 2 20.0 -16.0 -1.0 0.0 0.0 1.0
656 2 21.0 -16.0 -1.0 0.0 0.0 1.0
657 2 22.0 -16.0 -1.0 0.0 0.0 1.0
658 2 23.0 -16.0 -1.0 0.0 0.0 1.0
659 2 24.0 -16.0 -1.0 0.0 0.0 1.0
660 2 -25.0 -15.0 -1.0 0.0 0.0 1.0
661 2 -24.0 -15.0 -1.0 0.0 0.0 1.0
662 2 -23.0 -15.0 -1.0 0.0 0.0 1.0
663 2 -22.0 -15.0 -1.0 0.0 0.0 1.0
664 2 -21.0 -15.0 -1.0 0.0 0.0 1.0
665 2 -20.0 -15.0 -1.0 0.0 0.0 1.0
666 2 -19.0 -15.0 -1.0 0.0 0.0 1.0
667 2 -18.0 -15.0 -1.0 0.0 0.0 1.0
668 2 -17.0 -15.0 -1.0 0.0 0.0 1.0
669 2 -16.0 -15.0 -1.0 0.0 0.0 1.0
670 2 -15.0 -15.0 -1.0 0.0 0.0 1.0
671 2 -14.0 -15.0 -1.0 0.0 0.0 1.0
672 2 -13.0 -15.0 -1.0 0.0 0.0 1.0
673 2 -12.0 -15.0 -1.0 0.0 0.0 1.0
674 2 -11.0 -15.0 -1.0 0.0 0.0 1.0
675 2 -10.0 -15.0 -1.0 0.0 0.0 1.0
676 2 -9.0 -15.0 -1.0 0.0 0.0 1.0
677 2 -8.0 -15.0 -1.0 0.0 0.0 1.0
678 2 -7.0 -15.0 -1.0 0.0 0.0 1.0
679 2 -6.0 -15.0 -1.0 0.0 0.0 1.0
680 2 -5.0 -15.0 -1.0 0.0 0.0 1.0
681 2 -4.0 -15.0 -1.0 0.0 0.0 1.0
682 2 -3.0 -15.0 -1.0 0.0 0.0 1.0
683 2 -2.0 -15.0 -1.0 0.0 0.0 1.0
684 2 -1.0 -15.0 -1.0 0.0 0.0 1.0
685 2 0.0 -15.0 -1.0 0.0 0.0 1.0
686 2 1.0 -15.0 -1.0 0.0 0.0 1.0
687 2 2.0 -15.0 -1.0 0.0 0.0 1.0
688 2 3.0 -15.0 -1.0 0.0 0.0 1.0
689 2 4.0 -15.0 -1.0 0.0 0.0 1.0
690 2 5.0 -15.0 -1.0 0.0 0.0 1.0
691 2 6.0 -15.0 -1.0 0.0 0.0 1.0
692 2 7.0 -15.0 -1.0 0.0 0.0 1.0
693 2 8.0 -15.0 -1.0 0.0 0.0 1.0
694 2 9.0 -15.0 -1.0 0.0 0.0 1.0
695 2 10.0 -15.0 -1.0 0.0 0.0 1.0
696 2 11.0 -15.0 -1.0 0.0 0.0 1.0
697 2 12.0 -15.0 -1.0 0.0 0.0 1.0
698 2 13.0 -15.0 -1.0 0.0 0.0 1.0
699 2 14.0 -15.0 -1.0 0.0 0.0 1.0
700 2 15.0 -15.0 -1.0 0.0 0.0 1.0
701 2 16.0 -15.0 -1.0 0.0 0.0 1.0
702 2 17.0 -15.0 -1.0 0.0 0.0 1.0
703 2 18.0 -15.0 -1.0 0.0 0.0 1.0
704 2 19.0 -15.0 -1.0 0.0 0.0 1.0
705 2 20.0 -15.0 -1.0 0.0 0.0 1.0
706 2 21.0 -15.0 -1.0 0.0 0.0 1.0
707 2 22.0 -15.0 -1.0 0.0 0.0 1.0
708 2 23.0 -15.0 -1.0 0.0 0.0 1.0
709 2 24.0 -15.0 -1.0 0.0 0.0 1.0
710 2 -25.0 -14.0 -1.0 0.0 0.0 1.0
711 2 -24.0 -14.0 -1.0 0.0 0.0 1.0
712 2 -23.0 -14.0 -1.0 0.0 0.0 1.0
713 2 -22.0 -14.0 -1.0 0.0 0.0 1.0
714 2 -21.0 -14.0 -1.0 0.0 0.0 1.0
715 2 -20.0 -14.0 -1.0 0.0 0.0 1.0
716 2 -19.0 -14.0 -1.0 0.0 0.0 1.0
717 2 -18.0 -14.0 -1.0 0.0 0.0 1.0
718 2 -17.0 -14.0 -1.0 0.0 0.0 1.0
719 2 -16.0 -14.0 -1.0 0.0 0.0 1.0
720 2 -15.0 -14.0 -1.0 0.0 0.0 1.0
721 2 -14.0 -14.0 -1.0 0.0 0.0 1.0
722 2 -13.0 -14.0 -1.0 0.0 0.0 1.0
723 2 -12.0 -14.0 -1.0 0.0 0.0 1.0
724 2 -11.0 -14.0 -1.0 0.0 0.0 1.0
725 2 -10.0 -14.0 -1.0 0.0 0.0 1.0
726 2 -9.0 -14.0 -1.0 0.0 0.0 1.0
727 2 -8.0 -14.0 -1.0 0.0 0.0 1.0
728 2 -7.0 -14.0 -1.0 0.0 0.0 1.0
729 2 -6.0 -14.0 -1.0 0.0 0.0 1.0
730 2 -5.0 -14.0 -1.0 0.0 0.0 1.0
731 2 -4.0 -14.0 -1.0 0.0 0.0 1.0
732 2 -3.0 -14.0 -1.0 0.0 0.0 1.0
733 2 -2.0 -14.0 -1.0 0.0 0.0 1.0
734 2 -1.0 -14.0 -1.0 0.0 0.0 1.0
735 2 0.0 -14.0 -1.0 0.0 0.0 1.0
736 2 1.0 -14.0 -1.0 0.0 0.0 1.0
737 2 2.0 -14.0 -1.0 0.0 0.0 1.0
738 2 3.0 -14.0 -1.0 0.0 0.0 1.0
739 2 4.0 -14.0 -1.0 0.0 0.0 1.0
740 2 5.0 -14.0 -1.0 0.0 0.0 1.0
741 2 6.0 -14.0 -1.0 0.0 0.0 1.0
742 2 7.0 -14.0 -1.0 0.0 0.0 1.0
743 2 8.0 -14.0 -1.0 0.0 0.0 1.0
744 2 9.0 -14.0 -1.0 0.0 0.0 1.0
745 2 10.0 -14.0 -1.0 0.0 0.0 1.0
746 2 11.0 -14.0 -1.0 0.0 0.0 1.0
747 2 12.0 -14.0 -1.0 0.0 0.0 1.0
748 2 13.0 -14.0 -1.0 0.0 0.0 1.0
749 2 14.0 -14.0 -1.0 0.0 0.0 1.0
750 2 15.0 -14.0 -1.0 0.0 0.0 1.0
751 2 16.0 -14.0 -1.0 0.0 0.0 1.0
752 2 17.0 -14.0 -1.0 0.0 0.0 1.0
753 2 18.0 -14.0 -1.0 0.0 0.0 1.0